ITEM: TIMESTEP
700
ITEM: NUMBER OF ATOMS
2850
ITEM: BOX BOUNDS ff ff pp
-42.092 42.092
-42.092 42.092
-0.280613 0.280613
ITEM: ATOMS id type xu yu zu 
1 2 -27.3398 -28.9988 0 
3 2 -26.2107 -28.9642 0 
5 2 -25.0816 -28.9291 0 
7 2 -23.9525 -28.8936 0 
9 2 -22.8235 -28.8577 0 
11 2 -21.6944 -28.8213 0 
13 2 -20.5655 -28.7844 0 
15 2 -19.4366 -28.7472 0 
17 2 -18.3079 -28.7095 0 
19 2 -17.1793 -28.6715 0 
21 2 -16.0508 -28.6331 0 
23 2 -14.9226 -28.5944 0 
25 2 -13.7947 -28.5554 0 
27 2 -12.667 -28.5163 0 
29 2 -11.5396 -28.477 0 
31 2 -10.4126 -28.4376 0 
33 2 -9.28592 -28.3982 0 
35 2 -8.15967 -28.3589 0 
37 2 -7.03386 -28.3198 0 
39 2 -5.90848 -28.281 0 
2 2 -26.7941 -28.0086 0 
4 2 -25.6649 -27.9736 0 
6 2 -24.5357 -27.9381 0 
8 2 -23.4065 -27.902 0 
10 2 -22.2773 -27.8656 0 
12 2 -21.1481 -27.8286 0 
14 2 -20.019 -27.7912 0 
16 2 -18.89 -27.7533 0 
18 2 -17.7611 -27.715 0 
20 2 -16.6324 -27.6763 0 
22 2 -15.5039 -27.6373 0 
24 2 -14.3755 -27.5979 0 
26 2 -13.2475 -27.5582 0 
28 2 -12.1197 -27.5183 0 
30 2 -10.9923 -27.4783 0 
32 2 -9.86522 -27.4382 0 
34 2 -8.73856 -27.3981 0 
36 2 -7.61233 -27.3581 0 
38 2 -6.48656 -27.3184 0 
40 2 -5.36126 -27.2789 0 
41 2 -4.78357 -28.2426 0 
42 2 -4.23645 -27.24 0 
43 2 -3.65912 -28.2046 0 
44 2 -3.11213 -27.2015 0 
45 2 -2.53513 -28.1673 0 
46 2 -1.98828 -27.1638 0 
47 2 -1.41159 -28.1307 0 
48 2 -0.8649 -27.1269 0 
49 2 -0.288464 -28.095 0 
51 2 0.834263 -28.0602 0 
53 2 1.95663 -28.0264 0 
55 2 3.07869 -27.9937 0 
57 2 4.20048 -27.9622 0 
59 2 5.32207 -27.9319 0 
61 2 6.4435 -27.9029 0 
63 2 7.56483 -27.8752 0 
65 2 8.68613 -27.8488 0 
67 2 9.80743 -27.8237 0 
69 2 10.9288 -27.8 0 
71 2 12.0503 -27.7775 0 
73 2 13.1719 -27.7563 0 
75 2 14.2937 -27.7363 0 
77 2 15.4157 -27.7174 0 
79 2 16.538 -27.6997 0 
81 2 17.6605 -27.683 0 
83 2 18.7832 -27.6673 0 
85 2 19.9063 -27.6526 0 
87 2 21.0296 -27.6388 0 
89 2 22.1532 -27.6258 0 
91 2 23.2771 -27.6136 0 
93 2 24.4012 -27.6022 0 
95 2 25.5256 -27.5914 0 
97 2 26.6503 -27.5812 0 
99 2 27.7752 -27.5717 0 
101 2 -27.378 -27.0533 0 
103 2 -26.2487 -27.0183 0 
102 2 -26.833 -26.0633 0 
105 2 -25.1194 -26.9828 0 
104 2 -25.7037 -26.0278 0 
107 2 -23.9901 -26.9468 0 
106 2 -24.5742 -25.9918 0 
109 2 -22.8607 -26.9102 0 
108 1 -23.4443 -25.9561 0 
111 2 -21.7314 -26.8732 0 
113 2 -20.6021 -26.8357 0 
115 2 -19.4729 -26.7977 0 
117 2 -18.3437 -26.7591 0 
119 2 -17.2147 -26.7202 0 
121 2 -16.0858 -26.6808 0 
123 2 -14.9572 -26.641 0 
125 2 -13.8287 -26.6009 0 
127 2 -12.7006 -26.5605 0 
129 2 -11.5727 -26.5198 0 
131 2 -10.4452 -26.479 0 
133 2 -9.31813 -26.4382 0 
135 2 -8.19146 -26.3973 0 
137 2 -7.06526 -26.3566 0 
139 2 -5.93954 -26.3162 0 
141 2 -4.81433 -26.2762 0 
143 2 -3.68963 -26.2366 0 
145 2 -2.56545 -26.1977 0 
147 2 -1.44177 -26.1596 0 
50 2 0.258046 -27.0909 0 
149 2 -0.318563 -26.1224 0 
52 2 1.38059 -27.056 0 
151 2 0.804196 -26.0862 0 
54 2 2.50279 -27.0222 0 
153 2 1.92656 -26.0512 0 
56 2 3.62468 -26.9896 0 
155 2 3.04857 -26.0174 0 
58 2 4.74633 -26.9582 0 
157 2 4.1703 -25.9849 0 
60 2 5.86779 -26.9282 0 
159 2 5.2918 -25.9538 0 
62 2 6.98913 -26.8996 0 
64 2 8.11041 -26.8723 0 
66 2 9.23169 -26.8465 0 
68 2 10.353 -26.822 0 
70 2 11.4745 -26.7989 0 
72 2 12.596 -26.7771 0 
74 2 13.7178 -26.7566 0 
76 2 14.8398 -26.7373 0 
78 2 15.962 -26.7192 0 
80 2 17.0845 -26.7023 0 
82 2 18.2073 -26.6863 0 
84 2 19.3304 -26.6714 0 
86 2 20.4538 -26.6575 0 
88 2 21.5774 -26.6444 0 
90 2 22.7014 -26.6321 0 
92 2 23.8256 -26.6206 0 
94 2 24.9501 -26.6098 0 
96 2 26.0749 -26.5996 0 
98 2 27.2 -26.5901 0 
100 2 28.3253 -26.5811 0 
201 2 -27.4179 -25.1085 0 
203 2 -26.2885 -25.0731 0 
205 2 -25.159 -25.0372 0 
207 2 -24.0295 -25.0007 0 
209 1 -22.9003 -24.9633 0 
110 1 -22.3147 -25.9184 0 
211 1 -21.7707 -24.9251 0 
112 1 -21.1851 -25.8793 0 
213 1 -20.6387 -24.8866 0 
114 1 -20.054 -25.8406 0 
215 1 -19.5062 -24.846 0 
116 1 -18.9225 -25.8011 0 
217 1 -18.3755 -24.8024 0 
118 1 -17.7927 -25.7604 0 
120 1 -16.6647 -25.719 0 
122 1 -15.5365 -25.6792 0 
124 1 -14.4071 -25.6403 0 
126 1 -13.278 -25.5991 0 
128 1 -12.15 -25.5554 0 
130 1 -11.0222 -25.5137 0 
132 1 -9.89458 -25.4749 0 
134 1 -8.76771 -25.4346 0 
136 1 -7.64162 -25.3918 0 
138 1 -6.51626 -25.3497 0 
140 1 -5.39138 -25.3087 0 
142 1 -4.2661 -25.2662 0 
144 1 -3.14093 -25.224 0 
146 1 -2.01776 -25.1853 0 
148 1 -0.895895 -25.148 0 
150 1 0.226853 -25.1106 0 
152 1 1.34987 -25.0755 0 
154 1 2.47143 -25.0418 0 
156 1 3.59226 -25.0075 0 
158 1 4.71382 -24.975 0 
160 1 5.83539 -24.9441 0 
161 2 6.41316 -25.9242 0 
162 1 6.95623 -24.9138 0 
163 2 7.53443 -25.896 0 
164 1 8.07717 -24.8859 0 
165 2 8.65568 -25.8693 0 
167 2 9.77697 -25.844 0 
166 1 9.19829 -24.8599 0 
169 2 10.8984 -25.8202 0 
168 1 10.3197 -24.8363 0 
171 2 12.0199 -25.7978 0 
170 1 11.4421 -24.8166 0 
173 2 13.1416 -25.7768 0 
172 1 12.565 -24.7964 0 
175 2 14.2636 -25.7571 0 
177 2 15.3858 -25.7386 0 
179 2 16.5083 -25.7213 0 
181 2 17.6311 -25.7052 0 
183 2 18.7543 -25.6901 0 
185 2 19.8777 -25.6759 0 
187 2 21.0014 -25.6627 0 
189 2 22.1254 -25.6504 0 
191 2 23.2498 -25.6388 0 
193 2 24.3744 -25.628 0 
195 2 25.4993 -25.6179 0 
197 2 26.6245 -25.6084 0 
199 2 27.75 -25.5994 0 
202 2 -26.8739 -24.1187 0 
204 2 -25.7444 -24.0828 0 
206 2 -24.6148 -24.0464 0 
208 1 -23.4839 -24.0075 0 
210 1 -22.3534 -23.97 0 
212 1 -21.2227 -23.9323 0 
214 1 -20.0922 -23.8913 0 
216 1 -18.9622 -23.8469 0 
219 1 -17.2464 -24.7592 0 
218 1 -17.8315 -23.8022 0 
221 1 -16.1167 -24.7183 0 
220 1 -16.7007 -23.76 0 
222 1 -15.5701 -23.7201 0 
223 1 -14.9864 -24.6793 0 
224 1 -14.4401 -23.6795 0 
225 1 -13.8571 -24.639 0 
226 1 -13.3107 -23.6369 0 
227 1 -12.7288 -24.5954 0 
229 1 -11.6006 -24.5516 0 
231 1 -10.4728 -24.5102 0 
233 1 -9.34625 -24.4696 0 
235 1 -8.21983 -24.4266 0 
237 1 -7.09294 -24.3823 0 
239 1 -5.96693 -24.3397 0 
241 1 -4.8424 -24.2985 0 
243 1 -3.71823 -24.2562 0 
245 1 -2.5944 -24.2145 0 
247 1 -1.47217 -24.1759 0 
249 1 -0.350554 -24.1386 0 
251 1 0.771921 -24.1015 0 
253 1 1.8939 -24.0651 0 
255 1 3.0148 -24.0299 0 
257 1 4.13632 -23.9962 0 
259 1 5.25847 -23.9636 0 
261 1 6.38012 -23.9328 0 
263 1 7.50108 -23.9051 0 
265 1 8.62113 -23.8787 0 
267 1 9.74172 -23.8537 0 
269 1 10.8636 -23.8324 0 
271 1 11.9853 -23.8123 0 
273 1 13.1077 -23.7914 0 
174 1 13.6876 -24.7744 0 
275 1 14.2317 -23.771 0 
176 1 14.8094 -24.754 0 
277 1 15.3563 -23.753 0 
178 1 15.9307 -24.7365 0 
279 1 16.4797 -23.7381 0 
180 1 17.0527 -24.722 0 
281 1 17.6018 -23.7249 0 
182 1 18.1764 -24.7081 0 
283 1 18.7241 -23.7102 0 
184 1 19.3016 -24.6929 0 
285 1 19.848 -23.6929 0 
186 1 20.4266 -24.6769 0 
287 1 20.9731 -23.676 0 
188 1 21.5503 -24.6625 0 
289 1 22.0988 -23.6645 0 
190 1 22.673 -24.6529 0 
291 1 23.2244 -23.6593 0 
192 1 23.7968 -24.6448 0 
293 1 24.3491 -23.6519 0 
194 1 24.9217 -24.6359 0 
295 2 25.4729 -23.6443 0 
196 2 26.0488 -24.6264 0 
198 2 27.1745 -24.6176 0 
200 2 28.3003 -24.6093 0 
301 2 -27.4598 -23.1644 0 
303 2 -26.3303 -23.1287 0 
305 2 -25.2007 -23.0924 0 
307 2 -24.071 -23.0555 0 
309 1 -22.9378 -23.0154 0 
311 1 -21.8069 -22.9762 0 
313 1 -20.6768 -22.9356 0 
315 1 -19.547 -22.8917 0 
317 1 -18.4161 -22.8472 0 
319 1 -17.2851 -22.8035 0 
321 1 -16.1544 -22.7625 0 
323 1 -15.0249 -22.7216 0 
325 1 -13.8963 -22.6783 0 
327 1 -12.7674 -22.6331 0 
228 1 -12.1816 -23.592 0 
329 1 -11.6371 -22.5882 0 
230 1 -11.053 -23.5481 0 
331 1 -10.5075 -22.5445 0 
232 1 -9.92493 -23.5053 0 
333 1 -9.38058 -22.4999 0 
234 1 -8.79836 -23.4616 0 
236 1 -7.67278 -23.417 0 
238 1 -6.5468 -23.3734 0 
240 1 -5.42183 -23.3306 0 
242 1 -4.29901 -23.2877 0 
244 1 -3.17602 -23.2462 0 
246 1 -2.05203 -23.2063 0 
248 1 -0.9293 -23.1668 0 
250 1 0.192028 -23.128 0 
252 1 1.31357 -23.0906 0 
254 1 2.43551 -23.0544 0 
256 1 3.55736 -23.0195 0 
258 1 4.67869 -22.9862 0 
260 1 5.80009 -22.955 0 
262 1 6.92164 -22.9258 0 
264 1 8.04224 -22.8979 0 
266 1 9.16294 -22.8726 0 
268 1 10.2846 -22.8493 0 
270 1 11.4062 -22.8267 0 
272 1 12.5275 -22.8059 0 
274 1 13.6495 -22.7874 0 
276 1 14.7744 -22.7714 0 
278 1 15.9006 -22.7561 0 
280 1 17.0254 -22.741 0 
282 1 18.1482 -22.726 0 
284 1 19.2707 -22.7091 0 
286 1 20.395 -22.6914 0 
288 1 21.5216 -22.6778 0 
290 1 22.6497 -22.6715 0 
292 1 23.7752 -22.6667 0 
294 1 24.8996 -22.6602 0 
297 2 26.5987 -23.6355 0 
296 2 26.0228 -22.6533 0 
299 2 27.7248 -23.6273 0 
298 2 27.149 -22.6452 0 
300 2 28.2755 -22.6376 0 
302 2 -26.9167 -22.1747 0 
304 2 -25.7871 -22.1385 0 
306 2 -24.6574 -22.1018 0 
308 1 -23.525 -22.0631 0 
310 1 -22.3926 -22.0212 0 
312 1 -21.2605 -21.9804 0 
314 1 -20.1302 -21.9366 0 
316 1 -19.0008 -21.8919 0 
318 1 -17.8709 -21.8472 0 
320 1 -16.7392 -21.8056 0 
322 1 -15.6082 -21.7643 0 
324 1 -14.4797 -21.72 0 
326 1 -13.3517 -21.6747 0 
328 1 -12.2218 -21.63 0 
330 1 -11.0923 -21.5853 0 
332 1 -9.96533 -21.5402 0 
334 1 -8.8392 -21.4955 0 
335 1 -8.25466 -22.4548 0 
336 1 -7.71333 -21.4497 0 
337 1 -7.12892 -22.4108 0 
338 1 -6.59018 -21.4013 0 
339 1 -6.00502 -22.3655 0 
340 1 -5.46859 -21.3534 0 
341 1 -4.88288 -22.3191 0 
342 1 -4.34582 -21.3092 0 
343 1 -3.75989 -22.2762 0 
345 1 -2.63659 -22.236 0 
347 1 -1.51473 -22.1953 0 
349 1 -0.392984 -22.1558 0 
351 1 0.729421 -22.1183 0 
353 1 1.85135 -22.0816 0 
355 1 2.9728 -22.0463 0 
357 1 4.09419 -22.0116 0 
359 1 5.21535 -21.9785 0 
361 1 6.33608 -21.9475 0 
363 1 7.45717 -21.9177 0 
365 1 8.5793 -21.8906 0 
367 1 9.70124 -21.8663 0 
369 1 10.8231 -21.8439 0 
371 1 11.945 -21.8222 0 
373 1 13.0667 -21.8026 0 
375 1 14.1905 -21.7883 0 
377 1 15.3164 -21.7745 0 
379 1 16.4432 -21.7586 0 
381 1 17.5685 -21.7415 0 
383 1 18.6919 -21.7248 0 
385 1 19.8156 -21.7085 0 
387 1 20.9415 -21.6931 0 
389 1 22.0703 -21.6844 0 
391 1 23.1975 -21.6784 0 
393 1 24.322 -21.6753 0 
395 2 25.4466 -21.6709 0 
397 2 26.573 -21.6629 0 
399 2 27.6998 -21.6554 0 
401 2 -27.5037 -21.2208 0 
403 2 -26.3741 -21.1849 0 
402 2 -26.9617 -20.2313 0 
405 2 -25.2445 -21.1483 0 
404 2 -25.8321 -20.1949 0 
407 2 -24.1147 -21.111 0 
409 1 -22.9799 -21.0684 0 
411 1 -21.8465 -21.0268 0 
413 1 -20.7164 -20.9826 0 
415 1 -19.5874 -20.937 0 
417 1 -18.4573 -20.8919 0 
419 1 -17.3243 -20.8498 0 
421 1 -16.1918 -20.8074 0 
423 1 -15.0622 -20.7631 0 
425 1 -13.9338 -20.7174 0 
427 1 -12.8054 -20.6727 0 
429 1 -11.6767 -20.627 0 
431 1 -10.5487 -20.5811 0 
433 1 -9.42207 -20.5359 0 
435 1 -8.29797 -20.4887 0 
437 1 -7.17588 -20.438 0 
439 1 -6.0535 -20.3891 0 
441 1 -4.9312 -20.3439 0 
344 1 -3.2234 -21.2662 0 
443 1 -3.81056 -20.2985 0 
346 1 -2.10265 -21.2239 0 
445 1 -2.68991 -20.2534 0 
348 1 -0.981168 -21.1845 0 
447 1 -1.56777 -20.2121 0 
350 1 0.140934 -21.1461 0 
449 1 -0.446452 -20.1715 0 
352 1 1.26278 -21.1076 0 
354 1 2.38492 -21.0711 0 
356 1 3.50631 -21.0358 0 
358 1 4.62725 -21.0013 0 
360 1 5.74821 -20.9684 0 
362 1 6.86909 -20.938 0 
364 1 7.99078 -20.9101 0 
366 1 9.1129 -20.8841 0 
368 1 10.2359 -20.8622 0 
370 1 11.3593 -20.8409 0 
372 1 12.4826 -20.8199 0 
374 1 13.6067 -20.8045 0 
376 1 14.7317 -20.7917 0 
378 1 15.8583 -20.7772 0 
380 1 16.9852 -20.7585 0 
382 1 18.1106 -20.7395 0 
384 1 19.2347 -20.724 0 
386 1 20.3604 -20.7107 0 
388 1 21.4903 -20.7009 0 
390 1 22.6205 -20.693 0 
392 1 23.7479 -20.6874 0 
394 1 24.8724 -20.6861 0 
396 2 25.9969 -20.6804 0 
398 2 27.1238 -20.673 0 
400 2 28.251 -20.6661 0 
501 2 -27.5497 -19.2779 0 
503 2 -26.4202 -19.2417 0 
505 2 -25.2906 -19.2049 0 
406 2 -24.7023 -20.1579 0 
507 2 -24.1608 -19.1673 0 
408 1 -23.5703 -20.1176 0 
509 1 -23.0307 -19.1234 0 
410 1 -22.4383 -20.0743 0 
511 1 -21.9003 -19.0769 0 
412 1 -21.3081 -20.0291 0 
414 1 -20.1773 -19.9834 0 
513 1 -20.768 -19.0307 0 
416 1 -19.0448 -19.9389 0 
418 1 -17.9108 -19.8964 0 
420 1 -16.778 -19.8527 0 
422 1 -15.6471 -19.807 0 
424 1 -14.5176 -19.7616 0 
426 1 -13.3885 -19.7156 0 
428 1 -12.2599 -19.6695 0 
430 1 -11.1309 -19.623 0 
432 1 -10.0038 -19.5761 0 
434 1 -8.88073 -19.5267 0 
436 1 -7.75975 -19.475 0 
438 1 -6.63719 -19.4254 0 
440 1 -5.51412 -19.3778 0 
442 1 -4.3937 -19.3294 0 
444 1 -3.27385 -19.2825 0 
446 1 -2.15192 -19.2393 0 
448 1 -1.03023 -19.1965 0 
450 1 0.0905745 -19.1548 0 
451 1 0.67433 -20.1311 0 
452 1 1.21149 -19.1154 0 
453 1 1.79634 -20.0931 0 
454 1 2.33245 -19.0778 0 
455 1 2.91851 -20.0561 0 
456 1 3.45455 -19.0425 0 
457 1 4.03994 -20.0216 0 
458 1 4.57622 -19.009 0 
459 1 5.16085 -19.9891 0 
461 1 6.28231 -19.9581 0 
463 1 7.40419 -19.9299 0 
465 1 8.52573 -19.9037 0 
467 1 9.64787 -19.8811 0 
469 1 10.7705 -19.8602 0 
471 1 11.8951 -19.8393 0 
473 1 13.0213 -19.8207 0 
475 1 14.1462 -19.8067 0 
477 1 15.2708 -19.795 0 
479 1 16.3971 -19.7789 0 
481 1 17.5264 -19.7586 0 
483 1 18.6561 -19.7396 0 
485 1 19.7844 -19.7264 0 
487 1 20.9136 -19.7185 0 
489 1 22.0429 -19.7111 0 
491 1 23.1699 -19.7028 0 
493 1 24.296 -19.6986 0 
495 2 25.4205 -19.6978 0 
497 2 26.5477 -19.6905 0 
499 2 27.6751 -19.6838 0 
502 2 -27.0088 -18.2886 0 
504 2 -25.8793 -18.252 0 
506 2 -24.7497 -18.2147 0 
508 1 -23.6194 -18.1738 0 
510 1 -22.4889 -18.1269 0 
512 1 -21.3581 -18.0798 0 
514 1 -20.2251 -18.0358 0 
515 1 -19.6338 -18.9871 0 
516 1 -19.0911 -17.9932 0 
517 1 -18.4994 -18.9445 0 
518 1 -17.9572 -17.9488 0 
519 1 -17.367 -18.9004 0 
520 1 -16.8261 -17.9013 0 
521 1 -16.236 -18.8533 0 
522 1 -15.6954 -17.8525 0 
523 1 -15.1053 -18.8065 0 
525 1 -13.9748 -18.7605 0 
527 1 -12.8444 -18.714 0 
529 1 -11.7148 -18.6667 0 
531 1 -10.5877 -18.6171 0 
533 1 -9.46434 -18.565 0 
535 1 -8.34255 -18.5124 0 
537 1 -7.21922 -18.4616 0 
539 1 -6.09557 -18.4112 0 
541 1 -4.97475 -18.3599 0 
543 1 -3.85444 -18.3115 0 
545 1 -2.73262 -18.2674 0 
547 1 -1.61115 -18.2233 0 
549 1 -0.490521 -18.1803 0 
551 1 0.629627 -18.1398 0 
553 1 1.75007 -18.1006 0 
555 1 2.87127 -18.0648 0 
557 1 3.99205 -18.0299 0 
559 1 5.11351 -17.9975 0 
460 1 5.69766 -18.9779 0 
561 1 6.23603 -17.9675 0 
462 1 6.82011 -18.949 0 
563 1 7.3595 -17.9393 0 
464 1 7.94273 -18.9224 0 
565 1 8.4834 -17.9158 0 
466 1 9.06573 -18.8993 0 
567 1 9.60732 -17.894 0 
468 1 10.1876 -18.8775 0 
569 1 10.7316 -17.8738 0 
470 1 11.3098 -18.8582 0 
472 1 12.4348 -18.8397 0 
474 1 13.563 -18.8227 0 
476 1 14.6895 -18.809 0 
478 1 15.8137 -18.7968 0 
480 1 16.9402 -18.7823 0 
482 1 18.0715 -18.7632 0 
484 1 19.2047 -18.7451 0 
486 1 20.336 -18.7337 0 
488 1 21.4653 -18.7277 0 
490 1 22.592 -18.7199 0 
492 1 23.7186 -18.7141 0 
494 1 24.8439 -18.7103 0 
496 2 25.9714 -18.7078 0 
498 2 27.0991 -18.7012 0 
500 2 28.2271 -18.6951 0 
601 2 -27.5979 -17.3354 0 
603 2 -26.4686 -17.2992 0 
605 2 -25.3391 -17.2621 0 
607 2 -24.2094 -17.2244 0 
609 1 -23.0792 -17.1787 0 
611 1 -21.9481 -17.1312 0 
613 1 -20.8161 -17.0865 0 
615 1 -19.6823 -17.0424 0 
617 1 -18.5488 -16.998 0 
619 1 -17.4172 -16.9492 0 
621 1 -16.2862 -16.9005 0 
524 1 -14.564 -17.8067 0 
623 1 -15.153 -16.8532 0 
526 1 -13.4319 -17.761 0 
625 1 -14.02 -16.8078 0 
528 1 -12.302 -17.7127 0 
627 1 -12.8894 -16.7585 0 
530 1 -11.1753 -17.66 0 
629 1 -11.7626 -16.7048 0 
532 1 -10.0508 -17.6051 0 
534 1 -8.92661 -17.551 0 
536 1 -7.8021 -17.4987 0 
538 1 -6.67862 -17.4457 0 
540 1 -5.55698 -17.3922 0 
542 1 -4.43482 -17.3429 0 
544 1 -3.31244 -17.2973 0 
546 1 -2.19133 -17.2507 0 
548 1 -1.07085 -17.2059 0 
550 1 0.0491817 -17.1638 0 
552 1 1.1689 -17.1235 0 
554 1 2.28967 -17.0859 0 
556 1 3.40976 -17.05 0 
558 1 4.53 -17.0173 0 
560 1 5.65104 -16.986 0 
562 1 6.77394 -16.9571 0 
564 1 7.89833 -16.9312 0 
566 1 9.02261 -16.9094 0 
568 1 10.1477 -16.8902 0 
571 1 11.8548 -17.8565 0 
570 1 11.2737 -16.8711 0 
573 1 12.9807 -17.8427 0 
572 1 12.4007 -16.8585 0 
575 1 14.1096 -17.8265 0 
574 1 13.5275 -16.8459 0 
577 1 15.2383 -17.8113 0 
576 1 14.6568 -16.8309 0 
579 1 16.3646 -17.7997 0 
578 1 15.786 -16.8155 0 
581 1 17.491 -17.787 0 
580 1 16.9141 -16.8044 0 
583 1 18.6209 -17.77 0 
582 1 18.0422 -16.7923 0 
585 1 19.7524 -17.753 0 
584 1 19.1721 -16.7761 0 
587 1 20.8828 -17.7433 0 
586 1 20.3026 -16.7621 0 
589 1 22.0112 -17.7359 0 
588 1 21.43 -16.7523 0 
591 1 23.1407 -17.7315 0 
590 1 22.5583 -16.7475 0 
593 1 24.2685 -17.7251 0 
592 1 23.6886 -16.743 0 
595 2 25.3948 -17.725 0 
594 1 24.8201 -16.7398 0 
596 2 25.9465 -16.7357 0 
597 2 26.5229 -17.7186 0 
598 2 27.0751 -16.7299 0 
599 2 27.6512 -17.7126 0 
600 2 28.2039 -16.7246 0 
602 2 -27.0583 -16.3463 0 
604 2 -25.929 -16.3096 0 
606 2 -24.7995 -16.2721 0 
608 1 -23.6687 -16.2289 0 
610 1 -22.5383 -16.184 0 
612 1 -21.4054 -16.1387 0 
614 1 -20.2725 -16.0941 0 
616 1 -19.1402 -16.0477 0 
618 1 -18.0094 -15.9991 0 
620 1 -16.8766 -15.9504 0 
622 1 -15.7421 -15.9026 0 
624 1 -14.6081 -15.8537 0 
626 1 -13.4767 -15.8038 0 
628 1 -12.3474 -15.7495 0 
630 1 -11.2201 -15.6923 0 
631 1 -10.6367 -16.6481 0 
632 1 -10.093 -15.6346 0 
633 1 -9.51008 -16.5918 0 
634 1 -8.96628 -15.5776 0 
635 1 -8.38477 -16.5374 0 
636 1 -7.84067 -15.5215 0 
637 1 -7.26154 -16.4826 0 
639 1 -6.13818 -16.4278 0 
641 1 -5.01383 -16.3771 0 
643 1 -3.89067 -16.3282 0 
645 1 -2.77023 -16.2784 0 
647 1 -1.64991 -16.2309 0 
649 1 -0.529219 -16.1865 0 
651 1 0.590834 -16.1447 0 
653 1 1.71082 -16.1066 0 
655 1 2.83095 -16.0691 0 
657 1 3.95159 -16.0354 0 
659 1 5.07182 -16.0044 0 
661 1 6.19328 -15.9761 0 
663 1 7.31635 -15.9492 0 
665 1 8.44123 -15.9253 0 
667 1 9.56615 -15.9052 0 
669 1 10.6911 -15.8864 0 
671 1 11.8186 -15.872 0 
673 1 12.9465 -15.8604 0 
675 1 14.0753 -15.8501 0 
677 1 15.204 -15.8349 0 
679 1 16.3323 -15.8213 0 
681 1 17.4592 -15.8101 0 
683 1 18.588 -15.7988 0 
685 1 19.7195 -15.7846 0 
687 1 20.8509 -15.7714 0 
689 1 21.98 -15.7637 0 
691 1 23.1085 -15.7593 0 
693 1 24.2384 -15.7565 0 
695 2 25.3699 -15.7527 0 
697 2 26.4989 -15.7471 0 
699 2 27.6281 -15.742 0 
701 2 -27.6483 -15.3934 0 
703 2 -26.5193 -15.357 0 
705 2 -25.3901 -15.3199 0 
707 2 -24.2607 -15.282 0 
709 1 -23.1288 -15.2356 0 
711 1 -21.9956 -15.1905 0 
713 1 -20.8644 -15.1451 0 
715 1 -19.7348 -15.0989 0 
717 1 -18.6037 -15.0513 0 
719 1 -17.469 -15.0032 0 
721 1 -16.3337 -14.9547 0 
723 1 -15.1989 -14.9038 0 
725 1 -14.0651 -14.8507 0 
727 1 -12.9337 -14.7952 0 
729 1 -11.8051 -14.7368 0 
731 1 -10.678 -14.6783 0 
733 1 -9.54966 -14.6202 0 
735 1 -8.42089 -14.5628 0 
638 1 -6.71514 -15.4663 0 
737 1 -7.29346 -14.5062 0 
640 1 -5.58941 -15.4131 0 
739 1 -6.16766 -14.4514 0 
642 1 -4.46576 -15.3614 0 
741 1 -5.04296 -14.3965 0 
644 1 -3.34505 -15.3086 0 
743 1 -3.92109 -14.3408 0 
646 1 -2.22485 -15.258 0 
648 1 -1.10473 -15.211 0 
650 1 0.0155533 -15.1671 0 
652 1 1.13572 -15.1262 0 
654 1 2.2547 -15.0878 0 
656 1 3.37483 -15.0536 0 
658 1 4.49562 -15.0211 0 
660 1 5.61727 -14.9929 0 
662 1 6.73895 -14.967 0 
664 1 7.86313 -14.9442 0 
666 1 8.98909 -14.9208 0 
668 1 10.115 -14.9006 0 
670 1 11.241 -14.8853 0 
672 1 12.3685 -14.8725 0 
674 1 13.4966 -14.8637 0 
676 1 14.6245 -14.8533 0 
678 1 15.7543 -14.8399 0 
680 1 16.8819 -14.825 0 
682 1 18.007 -14.816 0 
684 1 19.133 -14.8075 0 
686 1 20.2634 -14.7954 0 
688 1 21.3963 -14.7827 0 
690 1 22.5297 -14.7773 0 
692 1 23.6603 -14.7721 0 
694 1 24.791 -14.7686 0 
696 2 25.9226 -14.7642 0 
698 2 27.0521 -14.7592 0 
700 2 28.1818 -14.7547 0 
702 2 -27.11 -14.4044 0 
801 2 -27.7009 -13.4516 0 
704 2 -25.9811 -14.3676 0 
803 2 -26.5724 -13.4152 0 
706 2 -24.852 -14.3301 0 
805 2 -25.4437 -13.3781 0 
708 1 -23.7216 -14.2879 0 
807 2 -24.3146 -13.3401 0 
710 1 -22.5903 -14.2425 0 
809 1 -23.1826 -13.2935 0 
712 1 -21.4592 -14.1952 0 
714 1 -20.3292 -14.1494 0 
716 1 -19.197 -14.1032 0 
718 1 -18.0634 -14.0571 0 
720 1 -16.9275 -14.0086 0 
722 1 -15.7913 -13.9584 0 
724 1 -14.6555 -13.9028 0 
726 1 -13.5231 -13.8438 0 
728 1 -12.3936 -13.7837 0 
730 1 -11.2647 -13.7242 0 
732 1 -10.1353 -13.6659 0 
734 1 -9.00555 -13.6067 0 
736 1 -7.87784 -13.5481 0 
738 1 -6.75141 -13.4906 0 
740 1 -5.62578 -13.4334 0 
742 1 -4.50281 -13.3736 0 
744 1 -3.3818 -13.3146 0 
745 1 -2.80108 -14.2871 0 
746 1 -2.26148 -13.2614 0 
747 1 -1.68095 -14.2367 0 
748 1 -1.14085 -13.2121 0 
749 1 -0.560451 -14.1905 0 
751 1 0.559156 -14.1478 0 
753 1 1.6782 -14.1069 0 
755 1 2.79739 -14.071 0 
757 1 3.9165 -14.038 0 
759 1 5.03769 -14.0091 0 
761 1 6.15982 -13.9811 0 
763 1 7.28258 -13.9589 0 
765 1 8.40629 -13.9388 0 
767 1 9.53396 -13.9177 0 
769 1 10.6618 -13.8977 0 
771 1 11.79 -13.8851 0 
773 1 12.9182 -13.8741 0 
775 1 14.0455 -13.8656 0 
777 1 15.1725 -13.8576 0 
779 1 16.3018 -13.8443 0 
781 1 17.4312 -13.8309 0 
783 1 18.5572 -13.8237 0 
785 1 19.6832 -13.8186 0 
787 1 20.8124 -13.8061 0 
789 1 21.9456 -13.796 0 
791 1 23.0793 -13.7897 0 
793 1 24.2131 -13.7866 0 
795 2 25.3462 -13.7811 0 
797 2 26.4761 -13.7764 0 
799 2 27.6062 -13.772 0 
802 2 -27.164 -12.4626 0 
804 2 -26.0357 -12.4259 0 
806 2 -24.9071 -12.3884 0 
808 1 -23.7761 -12.3461 0 
810 1 -22.6454 -12.3001 0 
811 1 -22.0527 -13.2477 0 
812 1 -21.5158 -12.2532 0 
813 1 -20.9224 -13.2002 0 
814 1 -20.384 -12.2065 0 
815 1 -19.7903 -13.1549 0 
816 1 -19.2505 -12.1603 0 
817 1 -18.657 -13.1082 0 
818 1 -18.1152 -12.1154 0 
819 1 -17.5222 -13.0631 0 
821 1 -16.385 -13.0138 0 
823 1 -15.2497 -12.9587 0 
825 1 -14.1169 -12.8965 0 
827 1 -12.9858 -12.8349 0 
829 1 -11.8541 -12.7751 0 
831 1 -10.7238 -12.7154 0 
833 1 -9.59515 -12.6546 0 
835 1 -8.46637 -12.5921 0 
837 1 -7.33754 -12.5316 0 
839 1 -6.21029 -12.4711 0 
841 1 -5.08658 -12.4068 0 
843 1 -3.96404 -12.3456 0 
845 1 -2.84129 -12.2883 0 
847 1 -1.72072 -12.2333 0 
750 1 -0.0198694 -13.1658 0 
849 1 -0.601844 -12.1827 0 
851 1 0.519082 -12.1384 0 
752 1 1.10005 -13.1244 0 
853 1 1.64146 -12.1002 0 
754 1 2.21989 -13.0878 0 
855 1 2.76272 -12.0657 0 
756 1 3.3399 -13.0535 0 
758 1 4.46129 -13.0243 0 
760 1 5.58237 -12.9963 0 
762 1 6.70489 -12.9711 0 
764 1 7.82781 -12.9494 0 
766 1 8.95195 -12.9332 0 
768 1 10.0784 -12.9137 0 
770 1 11.2086 -12.8988 0 
772 1 12.3377 -12.8855 0 
774 1 13.4668 -12.8763 0 
776 1 14.5928 -12.8685 0 
778 1 15.7192 -12.8624 0 
780 1 16.8475 -12.8507 0 
782 1 17.9765 -12.8401 0 
784 1 19.1043 -12.8349 0 
786 1 20.2342 -12.8296 0 
788 1 21.3665 -12.8179 0 
790 1 22.5002 -12.807 0 
792 1 23.634 -12.8022 0 
794 1 24.7663 -12.7991 0 
796 2 25.9 -12.7934 0 
798 2 27.0306 -12.7893 0 
800 2 28.1612 -12.7854 0 
901 2 -27.7557 -11.5099 0 
903 2 -26.6279 -11.4735 0 
905 2 -25.4997 -11.4364 0 
907 2 -24.3713 -11.3985 0 
909 1 -23.2401 -11.3518 0 
911 1 -22.1097 -11.3064 0 
913 1 -20.9775 -11.2595 0 
915 1 -19.8432 -11.2133 0 
917 1 -18.708 -11.1686 0 
820 1 -16.9796 -12.0685 0 
919 1 -17.5725 -11.1219 0 
822 1 -15.8445 -12.0136 0 
921 1 -16.4383 -11.0685 0 
824 1 -14.7121 -11.9523 0 
923 1 -15.3062 -11.0082 0 
826 1 -13.5793 -11.8891 0 
925 1 -14.1743 -10.9463 0 
828 1 -12.4464 -11.8294 0 
927 1 -13.0409 -10.8842 0 
830 1 -11.3155 -11.7683 0 
832 1 -10.1864 -11.7047 0 
834 1 -9.05636 -11.6401 0 
836 1 -7.92511 -11.5762 0 
838 1 -6.79709 -11.5122 0 
840 1 -5.67264 -11.4467 0 
842 1 -4.54765 -11.3823 0 
844 1 -3.4239 -11.3224 0 
846 1 -2.30352 -11.2611 0 
848 1 -1.18608 -11.2023 0 
850 1 -0.0672773 -11.1554 0 
852 1 1.05306 -11.1146 0 
854 1 2.1754 -11.0766 0 
857 1 3.88506 -12.0374 0 
856 1 3.29924 -11.046 0 
859 1 5.00776 -12.0104 0 
858 1 4.42344 -11.0208 0 
861 1 6.13119 -11.9868 0 
860 1 5.54835 -10.9996 0 
863 1 7.25431 -11.962 0 
862 1 6.67296 -10.9788 0 
865 1 8.37809 -11.9414 0 
864 1 7.79982 -10.9568 0 
867 1 9.50158 -11.9248 0 
869 1 10.6291 -11.9121 0 
871 1 11.7578 -11.8986 0 
873 1 12.8872 -11.8898 0 
875 1 14.015 -11.8792 0 
877 1 15.1421 -11.8742 0 
879 1 16.2677 -11.8677 0 
881 1 17.397 -11.8604 0 
883 1 18.525 -11.8503 0 
885 1 19.6536 -11.8463 0 
887 1 20.7857 -11.8406 0 
889 1 21.9204 -11.8301 0 
891 1 23.056 -11.8188 0 
893 1 24.191 -11.8136 0 
895 2 25.3239 -11.8103 0 
897 2 26.4549 -11.8064 0 
899 2 27.586 -11.8028 0 
902 2 -27.2202 -10.5209 0 
904 2 -26.0925 -10.4842 0 
906 2 -24.9646 -10.4468 0 
908 1 -23.8353 -10.4038 0 
910 1 -22.7039 -10.3582 0 
912 1 -21.5724 -10.3122 0 
914 1 -20.4386 -10.2668 0 
916 1 -19.304 -10.2223 0 
918 1 -18.1688 -10.1761 0 
920 1 -17.0356 -10.1242 0 
922 1 -15.904 -10.0656 0 
924 1 -14.772 -10.0049 0 
926 1 -13.6386 -9.94185 0 
928 1 -12.5056 -9.87656 0 
929 1 -11.9092 -10.8222 0 
930 1 -11.3744 -9.81154 0 
931 1 -10.7784 -10.7569 0 
932 1 -10.2439 -9.74423 0 
933 1 -9.64765 -10.691 0 
935 1 -8.51687 -10.6247 0 
937 1 -7.38846 -10.5593 0 
939 1 -6.26188 -10.4918 0 
941 1 -5.13635 -10.4257 0 
943 1 -4.01002 -10.3606 0 
945 1 -2.89014 -10.2923 0 
947 1 -1.77265 -10.2273 0 
949 1 -0.653591 -10.1732 0 
951 1 0.463772 -10.1282 0 
953 1 1.58222 -10.0919 0 
955 1 2.70504 -10.0588 0 
957 1 3.83151 -10.0297 0 
959 1 4.95849 -10.0066 0 
961 1 6.08505 -9.98753 0 
963 1 7.2114 -9.97303 0 
965 1 8.34089 -9.95326 0 
866 1 8.92588 -10.9337 0 
967 1 9.47164 -9.93104 0 
868 1 10.0509 -10.9197 0 
969 1 10.5997 -9.91843 0 
870 1 11.1786 -10.9095 0 
971 1 11.7286 -9.9101 0 
872 1 12.3078 -10.9012 0 
973 1 12.8573 -9.90377 0 
874 1 13.4341 -10.8933 0 
975 1 13.9836 -9.8988 0 
876 1 14.5621 -10.8872 0 
977 1 15.1116 -9.89289 0 
878 1 15.6885 -10.8795 0 
979 1 16.237 -9.8862 0 
880 1 16.8153 -10.8766 0 
981 1 17.3631 -9.88455 0 
882 1 17.946 -10.8699 0 
983 1 18.4951 -9.87982 0 
884 1 19.0782 -10.8615 0 
985 1 19.6296 -9.87213 0 
886 1 20.2092 -10.8562 0 
987 1 20.7643 -9.86847 0 
888 1 21.3417 -10.8524 0 
890 1 22.4746 -10.8421 0 
989 1 21.8979 -9.86398 0 
892 1 23.6102 -10.8324 0 
991 1 23.0315 -9.85478 0 
894 1 24.7467 -10.827 0 
993 1 24.1676 -9.84587 0 
896 2 25.8793 -10.8234 0 
995 2 25.3037 -9.84035 0 
898 2 27.0108 -10.8201 0 
997 2 26.4357 -9.83726 0 
900 2 28.1423 -10.817 0 
999 2 27.5677 -9.8344 0 
1001 2 -27.8125 -9.56805 0 
1003 2 -26.6854 -9.5318 0 
1005 2 -25.5581 -9.49477 0 
1007 2 -24.4305 -9.45693 0 
1009 1 -23.3014 -9.4106 0 
1011 1 -22.1707 -9.36455 0 
1013 1 -21.0366 -9.31979 0 
1015 1 -19.9014 -9.27504 0 
1017 1 -18.768 -9.23024 0 
1019 1 -17.6351 -9.17958 0 
1021 1 -16.5035 -9.12413 0 
1023 1 -15.3699 -9.06424 0 
1025 1 -14.2364 -9.00165 0 
1027 1 -13.1036 -8.9349 0 
1029 1 -11.9717 -8.86812 0 
1031 1 -10.8403 -8.80166 0 
934 1 -9.11522 -9.67814 0 
1033 1 -9.7108 -8.7328 0 
936 1 -7.98524 -9.60999 0 
1035 1 -8.58192 -8.66273 0 
938 1 -6.85755 -9.54074 0 
1037 1 -7.45248 -8.58998 0 
940 1 -5.72958 -9.47109 0 
1039 1 -6.32462 -8.51797 0 
942 1 -4.60302 -9.40116 0 
944 1 -3.4808 -9.32616 0 
946 1 -2.35913 -9.25524 0 
948 1 -1.23963 -9.19405 0 
950 1 -0.121514 -9.13917 0 
952 1 0.996972 -9.10082 0 
954 1 2.1171 -9.07106 0 
956 1 3.24013 -9.04206 0 
958 1 4.36679 -9.0163 0 
960 1 5.49541 -8.99722 0 
962 1 6.62371 -8.97981 0 
964 1 7.75108 -8.96748 0 
966 1 8.88123 -8.9512 0 
968 1 10.0149 -8.93277 0 
970 1 11.1453 -8.92012 0 
972 1 12.2766 -8.91344 0 
974 1 13.4052 -8.9064 0 
976 1 14.5335 -8.9036 0 
978 1 15.6638 -8.89726 0 
980 1 16.7892 -8.89372 0 
982 1 17.917 -8.893 0 
984 1 19.0515 -8.89019 0 
986 1 20.1853 -8.88419 0 
988 1 21.3191 -8.88184 0 
990 1 22.4524 -8.87751 0 
992 1 23.5886 -8.86848 0 
994 1 24.725 -8.85655 0 
996 2 25.8608 -8.85435 0 
998 2 26.9933 -8.85174 0 
1000 2 28.1257 -8.84931 0 
1002 2 -27.2783 -8.57905 0 
1101 2 -27.8711 -7.62598 0 
1004 2 -26.1516 -8.54247 0 
1103 2 -26.7449 -7.58983 0 
1006 2 -25.0246 -8.50509 0 
1105 2 -25.6186 -7.5529 0 
1008 1 -23.8967 -8.46273 0 
1107 2 -24.492 -7.51516 0 
1010 1 -22.7672 -8.41723 0 
1012 1 -21.635 -8.37214 0 
1014 1 -20.5012 -8.32791 0 
1016 1 -19.3686 -8.2825 0 
1018 1 -18.2372 -8.235 0 
1020 1 -17.1053 -8.18054 0 
1022 1 -15.9731 -8.124 0 
1024 1 -14.8388 -8.06237 0 
1026 1 -13.706 -7.99752 0 
1028 1 -12.5716 -7.92896 0 
1030 1 -11.4391 -7.86218 0 
1032 1 -10.3097 -7.79032 0 
1034 1 -9.1814 -7.71693 0 
1036 1 -8.05172 -7.64302 0 
1038 1 -6.92324 -7.56922 0 
1041 1 -5.19844 -8.44542 0 
1040 1 -5.79424 -7.49467 0 
1043 1 -4.07394 -8.3678 0 
1042 1 -4.67167 -7.41217 0 
1045 1 -2.95349 -8.29077 0 
1044 1 -3.55082 -7.3272 0 
1047 1 -1.83337 -8.21834 0 
1049 1 -0.714932 -8.15374 0 
1051 1 0.407268 -8.10725 0 
1053 1 1.52715 -8.07404 0 
1055 1 2.64878 -8.05211 0 
1057 1 3.77604 -8.02877 0 
1059 1 4.90539 -8.00725 0 
1061 1 6.03521 -7.99003 0 
1063 1 7.1663 -7.97557 0 
1065 1 8.29617 -7.96308 0 
1067 1 9.42767 -7.94951 0 
1069 1 10.5618 -7.93398 0 
1071 1 11.6915 -7.92348 0 
1073 1 12.823 -7.91761 0 
1075 1 13.9519 -7.91116 0 
1077 1 15.0823 -7.90683 0 
1079 1 16.2144 -7.90375 0 
1081 1 17.3409 -7.90116 0 
1083 1 18.4728 -7.9042 0 
1085 1 19.6088 -7.90161 0 
1087 1 20.7456 -7.8981 0 
1089 1 21.8792 -7.89343 0 
1091 1 23.0108 -7.89213 0 
1093 1 24.1473 -7.88165 0 
1095 2 25.2861 -7.87134 0 
1097 2 26.419 -7.86899 0 
1099 2 27.5519 -7.8668 0 
1102 2 -27.3381 -6.63684 0 
1104 2 -26.2124 -6.60035 0 
1106 2 -25.0865 -6.56307 0 
1108 1 -23.9592 -6.52133 0 
1109 1 -23.3637 -7.46971 0 
1110 1 -22.832 -6.47464 0 
1111 1 -22.2345 -7.4235 0 
1112 1 -21.7014 -6.43172 0 
1113 1 -21.1021 -7.38025 0 
1114 1 -20.5702 -6.38899 0 
1115 1 -19.9698 -7.33614 0 
1116 1 -19.4427 -6.34189 0 
1117 1 -18.8395 -7.28824 0 
1119 1 -17.7103 -7.23659 0 
1121 1 -16.5785 -7.18125 0 
1123 1 -15.4439 -7.12372 0 
1125 1 -14.3091 -7.06062 0 
1127 1 -13.1748 -6.99448 0 
1129 1 -12.041 -6.9226 0 
1131 1 -10.9127 -6.84996 0 
1133 1 -9.78313 -6.77343 0 
1135 1 -8.65278 -6.69929 0 
1137 1 -7.52253 -6.62423 0 
1139 1 -6.39446 -6.54612 0 
1141 1 -5.27208 -6.46077 0 
1143 1 -4.14905 -6.37039 0 
1145 1 -3.03201 -6.27857 0 
1046 1 -2.43056 -7.24559 0 
1147 1 -1.91875 -6.18432 0 
1048 1 -1.31447 -7.17037 0 
1050 1 -0.19433 -7.1185 0 
1052 1 0.927567 -7.07849 0 
1054 1 2.0533 -7.05455 0 
1056 1 3.17745 -7.03777 0 
1058 1 4.30828 -7.01823 0 
1060 1 5.44205 -6.99955 0 
1062 1 6.57512 -6.98607 0 
1064 1 7.71022 -6.97216 0 
1066 1 8.84278 -6.96081 0 
1068 1 9.97891 -6.95074 0 
1070 1 11.1136 -6.93438 0 
1072 1 12.2441 -6.92753 0 
1074 1 13.3755 -6.92302 0 
1076 1 14.5035 -6.91589 0 
1078 1 15.6369 -6.91246 0 
1080 1 16.7684 -6.91071 0 
1082 1 17.899 -6.91242 0 
1084 1 19.0327 -6.91524 0 
1086 1 20.1665 -6.91615 0 
1088 1 21.303 -6.91046 0 
1090 1 22.4393 -6.90681 0 
1092 1 23.5721 -6.90574 0 
1094 1 24.7061 -6.89227 0 
1096 2 25.8451 -6.88616 0 
1098 2 26.9784 -6.88422 0 
1100 2 28.1116 -6.88241 0 
1201 2 -27.9311 -5.68349 0 