ITEM: TIMESTEP
0
ITEM: NUMBER OF ATOMS
2850
ITEM: BOX BOUNDS ff ff pp
-42.092 42.092
-42.092 42.092
-0.280613 0.280613
ITEM: ATOMS id type xu yu zu 
1 2 -27.3398 -28.9988 0 
3 2 -26.2107 -28.9642 0 
5 2 -25.0816 -28.9291 0 
7 2 -23.9525 -28.8936 0 
9 2 -22.8235 -28.8577 0 
11 2 -21.6944 -28.8213 0 
13 2 -20.5655 -28.7844 0 
15 2 -19.4366 -28.7472 0 
17 2 -18.3079 -28.7095 0 
19 2 -17.1793 -28.6715 0 
21 2 -16.0508 -28.6331 0 
23 2 -14.9226 -28.5944 0 
25 2 -13.7947 -28.5554 0 
27 2 -12.667 -28.5163 0 
29 2 -11.5396 -28.477 0 
31 2 -10.4126 -28.4376 0 
33 2 -9.28592 -28.3982 0 
35 2 -8.15967 -28.3589 0 
37 2 -7.03386 -28.3198 0 
39 2 -5.90848 -28.281 0 
2 2 -26.7941 -28.0086 0 
4 2 -25.6649 -27.9736 0 
6 2 -24.5357 -27.9381 0 
8 2 -23.4065 -27.902 0 
10 2 -22.2773 -27.8656 0 
12 2 -21.1481 -27.8286 0 
14 2 -20.019 -27.7912 0 
16 2 -18.89 -27.7533 0 
18 2 -17.7611 -27.715 0 
20 2 -16.6324 -27.6763 0 
22 2 -15.5039 -27.6373 0 
24 2 -14.3755 -27.5979 0 
26 2 -13.2475 -27.5582 0 
28 2 -12.1197 -27.5183 0 
30 2 -10.9923 -27.4783 0 
32 2 -9.86522 -27.4382 0 
34 2 -8.73856 -27.3981 0 
36 2 -7.61233 -27.3581 0 
38 2 -6.48656 -27.3184 0 
40 2 -5.36126 -27.2789 0 
41 2 -4.78357 -28.2426 0 
42 2 -4.23645 -27.24 0 
43 2 -3.65912 -28.2046 0 
44 2 -3.11213 -27.2015 0 
45 2 -2.53513 -28.1673 0 
46 2 -1.98828 -27.1638 0 
47 2 -1.41159 -28.1307 0 
48 2 -0.8649 -27.1269 0 
49 2 -0.288464 -28.095 0 
51 2 0.834263 -28.0602 0 
53 2 1.95663 -28.0264 0 
55 2 3.07869 -27.9937 0 
57 2 4.20048 -27.9622 0 
59 2 5.32207 -27.9319 0 
61 2 6.4435 -27.9029 0 
63 2 7.56483 -27.8752 0 
65 2 8.68613 -27.8488 0 
67 2 9.80743 -27.8237 0 
69 2 10.9288 -27.8 0 
71 2 12.0503 -27.7775 0 
73 2 13.1719 -27.7563 0 
75 2 14.2937 -27.7363 0 
77 2 15.4157 -27.7174 0 
79 2 16.538 -27.6997 0 
81 2 17.6605 -27.683 0 
83 2 18.7832 -27.6673 0 
85 2 19.9063 -27.6526 0 
87 2 21.0296 -27.6388 0 
89 2 22.1532 -27.6258 0 
91 2 23.2771 -27.6136 0 
93 2 24.4012 -27.6022 0 
95 2 25.5256 -27.5914 0 
97 2 26.6503 -27.5812 0 
99 2 27.7752 -27.5717 0 
101 2 -27.378 -27.0533 0 
103 2 -26.2487 -27.0183 0 
102 2 -26.833 -26.0633 0 
105 2 -25.1194 -26.9828 0 
104 2 -25.7037 -26.0278 0 
107 2 -23.9901 -26.9468 0 
106 2 -24.5742 -25.9918 0 
109 2 -22.8607 -26.9102 0 
108 1 -23.4448 -25.9553 0 
111 2 -21.7314 -26.8732 0 
113 2 -20.6021 -26.8357 0 
115 2 -19.4729 -26.7977 0 
117 2 -18.3437 -26.7591 0 
119 2 -17.2147 -26.7202 0 
121 2 -16.0858 -26.6808 0 
123 2 -14.9572 -26.641 0 
125 2 -13.8287 -26.6009 0 
127 2 -12.7006 -26.5605 0 
129 2 -11.5727 -26.5198 0 
131 2 -10.4452 -26.479 0 
133 2 -9.31813 -26.4382 0 
135 2 -8.19146 -26.3973 0 
137 2 -7.06526 -26.3566 0 
139 2 -5.93954 -26.3162 0 
141 2 -4.81433 -26.2762 0 
143 2 -3.68963 -26.2366 0 
145 2 -2.56545 -26.1977 0 
147 2 -1.44177 -26.1596 0 
50 2 0.258046 -27.0909 0 
149 2 -0.318563 -26.1224 0 
52 2 1.38059 -27.056 0 
151 2 0.804196 -26.0862 0 
54 2 2.50279 -27.0222 0 
153 2 1.92656 -26.0512 0 
56 2 3.62468 -26.9896 0 
155 2 3.04857 -26.0174 0 
58 2 4.74633 -26.9582 0 
157 2 4.1703 -25.9849 0 
60 2 5.86779 -26.9282 0 
159 2 5.2918 -25.9538 0 
62 2 6.98913 -26.8996 0 
64 2 8.11041 -26.8723 0 
66 2 9.23169 -26.8465 0 
68 2 10.353 -26.822 0 
70 2 11.4745 -26.7989 0 
72 2 12.596 -26.7771 0 
74 2 13.7178 -26.7566 0 
76 2 14.8398 -26.7373 0 
78 2 15.962 -26.7192 0 
80 2 17.0845 -26.7023 0 
82 2 18.2073 -26.6863 0 
84 2 19.3304 -26.6714 0 
86 2 20.4538 -26.6575 0 
88 2 21.5774 -26.6444 0 
90 2 22.7014 -26.6321 0 
92 2 23.8256 -26.6206 0 
94 2 24.9501 -26.6098 0 
96 2 26.0749 -26.5996 0 
98 2 27.2 -26.5901 0 
100 2 28.3253 -26.5811 0 
201 2 -27.4179 -25.1085 0 
203 2 -26.2885 -25.0731 0 
205 2 -25.159 -25.0372 0 
207 2 -24.0295 -25.0007 0 
209 1 -22.8999 -24.9637 0 
110 1 -22.3153 -25.9182 0 
211 1 -21.7703 -24.926 0 
112 1 -21.1858 -25.8806 0 
213 1 -20.6407 -24.8878 0 
114 1 -20.0564 -25.8425 0 
215 1 -19.5111 -24.8491 0 
116 1 -18.927 -25.8038 0 
217 1 -18.3815 -24.8097 0 
118 1 -17.7977 -25.7647 0 
120 1 -16.6686 -25.725 0 
122 1 -15.5396 -25.6849 0 
124 1 -14.4108 -25.6444 0 
126 1 -13.2822 -25.6035 0 
128 1 -12.1539 -25.5622 0 
130 1 -11.026 -25.5208 0 
132 1 -9.89844 -25.4792 0 
134 1 -8.77131 -25.4375 0 
136 1 -7.64464 -25.3959 0 
138 1 -6.51846 -25.3545 0 
140 1 -5.39281 -25.3133 0 
142 1 -4.2677 -25.2726 0 
144 1 -3.14313 -25.2325 0 
146 1 -2.01911 -25.1931 0 
148 1 -0.895607 -25.1546 0 
150 1 0.2274 -25.1172 0 
152 1 1.34996 -25.0808 0 
154 1 2.47212 -25.0458 0 
156 1 3.59395 -25.0121 0 
158 1 4.71552 -24.9798 0 
160 1 5.8369 -24.9491 0 
161 2 6.41316 -25.9242 0 
162 1 6.95817 -24.9199 0 
163 2 7.53443 -25.896 0 
164 1 8.07939 -24.8922 0 
165 2 8.65568 -25.8693 0 
167 2 9.77697 -25.844 0 
166 1 9.20064 -24.8661 0 
169 2 10.8984 -25.8202 0 
168 1 10.322 -24.8416 0 
171 2 12.0199 -25.7978 0 
170 1 11.4435 -24.8185 0 
173 2 13.1416 -25.7768 0 
172 1 12.5652 -24.7969 0 
175 2 14.2636 -25.7571 0 
177 2 15.3858 -25.7386 0 
179 2 16.5083 -25.7213 0 
181 2 17.6311 -25.7052 0 
183 2 18.7543 -25.6901 0 
185 2 19.8777 -25.6759 0 
187 2 21.0014 -25.6627 0 
189 2 22.1254 -25.6504 0 
191 2 23.2498 -25.6388 0 
193 2 24.3744 -25.628 0 
195 2 25.4993 -25.6179 0 
197 2 26.6245 -25.6084 0 
199 2 27.75 -25.5994 0 
202 2 -26.8739 -24.1187 0 
204 2 -25.7444 -24.0828 0 
206 2 -24.6148 -24.0464 0 
208 1 -23.4851 -24.0094 0 
210 1 -22.3554 -23.9718 0 
212 1 -21.2256 -23.9336 0 
214 1 -20.0959 -23.8948 0 
216 1 -18.9661 -23.8553 0 
219 1 -17.2521 -24.7698 0 
218 1 -17.8364 -23.8153 0 
221 1 -16.1228 -24.7295 0 
220 1 -16.7068 -23.7747 0 
222 1 -15.5773 -23.7335 0 
223 1 -14.9936 -24.6886 0 
224 1 -14.448 -23.6918 0 
225 1 -13.8647 -24.6472 0 
226 1 -13.3189 -23.6496 0 
227 1 -12.736 -24.6055 0 
229 1 -11.6076 -24.5634 0 
231 1 -10.4796 -24.5211 0 
233 1 -9.35193 -24.4787 0 
235 1 -8.22477 -24.4362 0 
237 1 -7.0981 -24.3937 0 
239 1 -5.97197 -24.3515 0 
241 1 -4.8464 -24.3096 0 
243 1 -3.7214 -24.2682 0 
245 1 -2.59698 -24.2276 0 
247 1 -1.47314 -24.1877 0 
249 1 -0.349837 -24.1489 0 
251 1 0.77296 -24.1111 0 
253 1 1.89531 -24.0747 0 
255 1 3.01727 -24.0397 0 
257 1 4.13892 -24.0062 0 
259 1 5.26034 -23.9743 0 
261 1 6.38161 -23.9439 0 
263 1 7.50281 -23.9153 0 
265 1 8.62403 -23.8883 0 
267 1 9.74533 -23.8629 0 
269 1 10.8668 -23.8392 0 
271 1 11.9884 -23.8169 0 
273 1 13.1103 -23.7962 0 
174 1 13.6871 -24.7767 0 
275 1 14.2325 -23.7769 0 
176 1 14.8093 -24.7578 0 
277 1 15.3551 -23.7589 0 
178 1 15.9318 -24.7402 0 
279 1 16.4779 -23.7422 0 
180 1 17.0547 -24.7238 0 
281 1 17.6011 -23.7267 0 
182 1 18.1778 -24.7085 0 
283 1 18.7246 -23.7122 0 
184 1 19.3013 -24.6942 0 
285 1 19.8485 -23.6988 0 
186 1 20.4251 -24.6809 0 
287 1 20.9728 -23.6863 0 
188 1 21.5492 -24.6685 0 
289 1 22.0973 -23.6747 0 
190 1 22.6737 -24.6569 0 
291 1 23.2222 -23.6639 0 
192 1 23.7985 -24.646 0 
293 1 24.3474 -23.6538 0 
194 1 24.9235 -24.6359 0 
295 2 25.4729 -23.6443 0 
196 2 26.0488 -24.6264 0 
198 2 27.1745 -24.6176 0 
200 2 28.3003 -24.6093 0 
301 2 -27.4598 -23.1644 0 
303 2 -26.3303 -23.1287 0 
305 2 -25.2007 -23.0924 0 
307 2 -24.071 -23.0555 0 
309 1 -22.9412 -23.0179 0 
311 1 -21.8113 -22.9797 0 
313 1 -20.6814 -22.9409 0 
315 1 -19.5515 -22.9014 0 
317 1 -18.4215 -22.8613 0 
319 1 -17.2917 -22.8206 0 
321 1 -16.1619 -22.7792 0 
323 1 -15.0322 -22.7372 0 
325 1 -13.9027 -22.6946 0 
327 1 -12.7734 -22.6515 0 
228 1 -12.19 -23.607 0 
329 1 -11.6444 -22.608 0 
230 1 -11.0615 -23.5641 0 
331 1 -10.5158 -22.564 0 
232 1 -9.93341 -23.5208 0 
333 1 -9.38759 -22.5199 0 
234 1 -8.80573 -23.4775 0 
236 1 -7.67854 -23.434 0 
238 1 -6.55188 -23.3907 0 
240 1 -5.4258 -23.3477 0 
242 1 -4.30032 -23.305 0 
244 1 -3.17546 -23.263 0 
246 1 -2.05122 -23.2217 0 
248 1 -0.92757 -23.1814 0 
250 1 0.195513 -23.1423 0 
252 1 1.31808 -23.1044 0 
254 1 2.44021 -23.0679 0 
256 1 3.56197 -23.033 0 
258 1 4.68345 -22.9998 0 
260 1 5.80473 -22.9683 0 
262 1 6.92592 -22.9385 0 
264 1 8.0471 -22.9105 0 
266 1 9.16835 -22.8843 0 
268 1 10.2898 -22.8597 0 
270 1 11.4114 -22.8368 0 
272 1 12.5332 -22.8156 0 
274 1 13.6554 -22.7958 0 
276 1 14.7779 -22.7775 0 
278 1 15.9008 -22.7604 0 
280 1 17.024 -22.7447 0 
282 1 18.1477 -22.7301 0 
284 1 19.2716 -22.7165 0 
286 1 20.396 -22.704 0 
288 1 21.5207 -22.6923 0 
290 1 22.6458 -22.6815 0 
292 1 23.7711 -22.6714 0 
294 1 24.8968 -22.6621 0 
297 2 26.5987 -23.6355 0 
296 2 26.0228 -22.6533 0 
299 2 27.7248 -23.6273 0 
298 2 27.149 -22.6452 0 
300 2 28.2755 -22.6376 0 
302 2 -26.9167 -22.1747 0 
304 2 -25.7871 -22.1385 0 
306 2 -24.6574 -22.1018 0 
308 1 -23.5276 -22.0643 0 
310 1 -22.3977 -22.0262 0 
312 1 -21.2677 -21.9875 0 
314 1 -20.1376 -21.948 0 
316 1 -19.0075 -21.9079 0 
318 1 -17.8774 -21.867 0 
320 1 -16.7473 -21.8255 0 
322 1 -15.6173 -21.7833 0 
324 1 -14.4875 -21.7404 0 
326 1 -13.3578 -21.6969 0 
328 1 -12.2283 -21.6528 0 
330 1 -11.0992 -21.6083 0 
332 1 -9.97044 -21.5634 0 
334 1 -8.84211 -21.5181 0 
335 1 -8.25985 -22.4755 0 
336 1 -7.7143 -21.4727 0 
337 1 -7.13263 -22.4311 0 
338 1 -6.58707 -21.4273 0 
339 1 -6.00599 -22.3869 0 
340 1 -5.46047 -21.3821 0 
341 1 -4.87998 -22.343 0 
342 1 -4.33454 -21.3373 0 
343 1 -3.75462 -22.2995 0 
345 1 -2.62991 -22.2568 0 
347 1 -1.50586 -22.215 0 
349 1 -0.382437 -22.1742 0 
351 1 0.740408 -22.1348 0 
353 1 1.86274 -22.0968 0 
355 1 2.98464 -22.0604 0 
357 1 4.1062 -22.0258 0 
359 1 5.22752 -21.9929 0 
361 1 6.3487 -21.9619 0 
363 1 7.46984 -21.9328 0 
365 1 8.59105 -21.9056 0 
367 1 9.71239 -21.8802 0 
369 1 10.834 -21.8566 0 
371 1 11.9558 -21.8348 0 
373 1 13.078 -21.8145 0 
375 1 14.2005 -21.7957 0 
377 1 15.3234 -21.7784 0 
379 1 16.4467 -21.7624 0 
381 1 17.5704 -21.7477 0 
383 1 18.6945 -21.734 0 
385 1 19.8189 -21.7214 0 
387 1 20.9438 -21.7097 0 
389 1 22.069 -21.6989 0 
391 1 23.1946 -21.6889 0 
393 1 24.3204 -21.6796 0 
395 2 25.4466 -21.6709 0 
397 2 26.573 -21.6629 0 
399 2 27.6998 -21.6554 0 
401 2 -27.5037 -21.2208 0 
403 2 -26.3741 -21.1849 0 
402 2 -26.9617 -20.2313 0 
405 2 -25.2445 -21.1483 0 
404 2 -25.8321 -20.1949 0 
407 2 -24.1147 -21.111 0 
409 1 -22.9847 -21.073 0 
411 1 -21.8547 -21.0344 0 
413 1 -20.7245 -20.995 0 
415 1 -19.5943 -20.9549 0 
417 1 -18.464 -20.914 0 
419 1 -17.3337 -20.8724 0 
421 1 -16.2035 -20.83 0 
423 1 -15.0733 -20.787 0 
425 1 -13.9432 -20.7432 0 
427 1 -12.8133 -20.6987 0 
429 1 -11.6837 -20.6536 0 
431 1 -10.5543 -20.608 0 
433 1 -9.42544 -20.5619 0 
435 1 -8.297 -20.5156 0 
437 1 -7.16913 -20.4691 0 
439 1 -6.04189 -20.4226 0 
441 1 -4.91533 -20.3763 0 
344 1 -3.20931 -21.293 0 
443 1 -3.7895 -20.3306 0 
346 1 -2.08479 -21.2496 0 
445 1 -2.66444 -20.2855 0 
348 1 -0.960958 -21.2072 0 
447 1 -1.54013 -20.2414 0 
350 1 0.16222 -21.1661 0 
449 1 -0.416549 -20.1985 0 
352 1 1.28481 -21.1265 0 
354 1 2.40689 -21.0885 0 
356 1 3.52856 -21.0523 0 
358 1 4.64993 -21.0179 0 
360 1 5.77112 -20.9856 0 
362 1 6.89223 -20.9553 0 
364 1 8.01338 -20.927 0 
366 1 9.13467 -20.9007 0 
368 1 10.2562 -20.8763 0 
370 1 11.378 -20.8538 0 
372 1 12.5001 -20.833 0 
374 1 13.6226 -20.8138 0 
376 1 14.7456 -20.7962 0 
378 1 15.8689 -20.7799 0 
380 1 16.9927 -20.765 0 
382 1 18.1169 -20.7512 0 
384 1 19.2415 -20.7386 0 
386 1 20.3666 -20.7269 0 
388 1 21.492 -20.7161 0 
390 1 22.6177 -20.7062 0 
392 1 23.7438 -20.6969 0 
394 1 24.8702 -20.6884 0 
396 2 25.9969 -20.6804 0 
398 2 27.1238 -20.673 0 
400 2 28.251 -20.6661 0 
501 2 -27.5497 -19.2779 0 
503 2 -26.4202 -19.2417 0 
505 2 -25.2906 -19.2049 0 
406 2 -24.7023 -20.1579 0 
507 2 -24.1608 -19.1673 0 
408 1 -23.5724 -20.1201 0 
509 1 -23.0308 -19.129 0 
410 1 -22.4424 -20.0816 0 
511 1 -21.9006 -19.09 0 
412 1 -21.3122 -20.0423 0 
414 1 -20.1819 -20.0023 0 
513 1 -20.7703 -19.0501 0 
416 1 -19.0515 -19.9615 0 
418 1 -17.921 -19.9199 0 
420 1 -16.7905 -19.8775 0 
422 1 -15.6601 -19.8343 0 
424 1 -14.5296 -19.7902 0 
426 1 -13.3994 -19.7454 0 
428 1 -12.2692 -19.6999 0 
430 1 -11.1394 -19.6537 0 
432 1 -10.0099 -19.607 0 
434 1 -8.88083 -19.5597 0 
436 1 -7.75229 -19.5122 0 
438 1 -6.62435 -19.4645 0 
440 1 -5.49711 -19.4168 0 
442 1 -4.37061 -19.3695 0 
444 1 -3.24492 -19.3227 0 
446 1 -2.12005 -19.2768 0 
448 1 -0.995983 -19.232 0 
450 1 0.127315 -19.1886 0 
451 1 0.706356 -20.157 0 
452 1 1.24992 -19.1469 0 
453 1 1.82867 -20.1172 0 
454 1 2.37195 -19.1071 0 
455 1 2.95049 -20.0793 0 
456 1 3.49351 -19.0694 0 
457 1 4.07194 -20.0434 0 
458 1 4.61476 -19.034 0 
459 1 5.19315 -20.0096 0 
461 1 6.31424 -19.978 0 
463 1 7.43534 -19.9485 0 
465 1 8.55657 -19.9212 0 
467 1 9.67802 -19.8959 0 
469 1 10.7998 -19.8726 0 
471 1 11.9219 -19.8513 0 
473 1 13.0444 -19.8316 0 
475 1 14.1674 -19.8136 0 
477 1 15.2908 -19.7972 0 
479 1 16.4147 -19.7821 0 
481 1 17.539 -19.7682 0 
483 1 18.6638 -19.7555 0 
485 1 19.789 -19.7438 0 
487 1 20.9146 -19.7331 0 
489 1 22.0406 -19.7232 0 
491 1 23.1669 -19.714 0 
493 1 24.2935 -19.7056 0 
495 2 25.4205 -19.6978 0 
497 2 26.5477 -19.6905 0 
499 2 27.6751 -19.6838 0 
502 2 -27.0088 -18.2886 0 
504 2 -25.8793 -18.252 0 
506 2 -24.7497 -18.2147 0 
508 1 -23.6198 -18.1766 0 
510 1 -22.4897 -18.1378 0 
512 1 -21.3594 -18.0982 0 
514 1 -20.229 -18.0577 0 
515 1 -19.6398 -19.0094 0 
516 1 -19.0984 -18.0163 0 
517 1 -18.5093 -18.9679 0 
518 1 -17.9676 -17.974 0 
519 1 -17.3786 -18.9255 0 
520 1 -16.8368 -17.9308 0 
521 1 -16.2479 -18.8822 0 
522 1 -15.7059 -17.8866 0 
523 1 -15.1172 -18.8381 0 
525 1 -13.9866 -18.7931 0 
527 1 -12.856 -18.7472 0 
529 1 -11.7257 -18.7006 0 
531 1 -10.5956 -18.6532 0 
533 1 -9.4659 -18.6052 0 
535 1 -8.33666 -18.5567 0 
537 1 -7.208 -18.5078 0 
539 1 -6.08001 -18.4588 0 
541 1 -4.95277 -18.4099 0 
543 1 -3.82636 -18.3614 0 
545 1 -2.70083 -18.3136 0 
547 1 -1.57619 -18.2668 0 
549 1 -0.452405 -18.2213 0 
551 1 0.670578 -18.1776 0 
553 1 1.79287 -18.1357 0 
555 1 2.91459 -18.0961 0 
557 1 4.03591 -18.0588 0 
559 1 5.15699 -18.024 0 
460 1 5.73584 -19.0008 0 
561 1 6.278 -17.9917 0 
462 1 6.85689 -18.9701 0 
563 1 7.3991 -17.962 0 
464 1 7.97805 -18.9416 0 
565 1 8.52041 -17.9347 0 
466 1 9.09944 -18.9154 0 
567 1 9.64205 -17.9098 0 
468 1 10.2211 -18.8913 0 
569 1 10.7641 -17.8871 0 
470 1 11.3432 -18.8693 0 
472 1 12.4658 -18.8492 0 
474 1 13.5888 -18.8308 0 
476 1 14.7123 -18.8141 0 
478 1 15.8363 -18.7988 0 
480 1 16.9608 -18.7849 0 
482 1 18.0857 -18.7721 0 
484 1 19.2111 -18.7605 0 
486 1 20.3369 -18.7498 0 
488 1 21.4632 -18.74 0 
490 1 22.5897 -18.731 0 
492 1 23.7166 -18.7226 0 
494 1 24.8439 -18.715 0 
496 2 25.9714 -18.7078 0 
498 2 27.0991 -18.7012 0 
500 2 28.2271 -18.6951 0 
601 2 -27.5979 -17.3354 0 
603 2 -26.4686 -17.2992 0 
605 2 -25.3391 -17.2621 0 
607 2 -24.2094 -17.2244 0 
609 1 -23.0795 -17.1858 0 
611 1 -21.9493 -17.1464 0 
613 1 -20.8189 -17.1062 0 
615 1 -19.6884 -17.065 0 
617 1 -18.5576 -17.0229 0 
619 1 -17.4267 -16.9799 0 
621 1 -16.2956 -16.9358 0 
524 1 -14.5749 -17.8415 0 
623 1 -15.1645 -16.8907 0 
526 1 -13.444 -17.7955 0 
625 1 -14.0333 -16.8446 0 
528 1 -12.3132 -17.7485 0 
627 1 -12.9021 -16.7974 0 
530 1 -11.1826 -17.7006 0 
629 1 -11.771 -16.7492 0 
532 1 -10.0523 -17.652 0 
534 1 -8.92237 -17.6026 0 
536 1 -7.79296 -17.5527 0 
538 1 -6.66417 -17.5024 0 
540 1 -5.53612 -17.452 0 
542 1 -4.40891 -17.4018 0 
544 1 -3.28262 -17.352 0 
546 1 -2.15729 -17.3031 0 
548 1 -1.03292 -17.2555 0 
550 1 0.0905402 -17.2094 0 
552 1 1.21317 -17.1653 0 
554 1 2.33512 -17.1235 0 
556 1 3.45656 -17.0842 0 
558 1 4.57767 -17.0475 0 
560 1 5.69864 -17.0136 0 
562 1 6.81966 -16.9824 0 
564 1 7.9409 -16.954 0 
566 1 9.06247 -16.9281 0 
568 1 10.1845 -16.9046 0 
571 1 11.8866 -17.8665 0 
570 1 11.307 -16.8834 0 
573 1 13.0097 -17.8477 0 
572 1 12.4302 -16.8643 0 
575 1 14.1333 -17.8307 0 
574 1 13.5538 -16.847 0 
577 1 15.2574 -17.8153 0 
576 1 14.6781 -16.8314 0 
579 1 16.3821 -17.8012 0 
578 1 15.803 -16.8173 0 
581 1 17.5072 -17.7885 0 
580 1 16.9283 -16.8045 0 
583 1 18.6329 -17.7768 0 
582 1 18.0542 -16.7929 0 
585 1 19.7589 -17.7662 0 
584 1 19.1806 -16.7824 0 
587 1 20.8854 -17.7565 0 
586 1 20.3074 -16.7728 0 
589 1 22.0123 -17.7476 0 
588 1 21.4346 -16.7641 0 
591 1 23.1395 -17.7395 0 
590 1 22.5621 -16.7561 0 
593 1 24.267 -17.7319 0 
592 1 23.69 -16.7487 0 
595 2 25.3948 -17.725 0 
594 1 24.8181 -16.742 0 
596 2 25.9465 -16.7357 0 
597 2 26.5229 -17.7186 0 
598 2 27.0751 -16.7299 0 
599 2 27.6512 -17.7126 0 
600 2 28.2039 -16.7246 0 
602 2 -27.0583 -16.3463 0 
604 2 -25.929 -16.3096 0 
606 2 -24.7995 -16.2721 0 
608 1 -23.6698 -16.2339 0 
610 1 -22.5398 -16.1948 0 
612 1 -21.4096 -16.1549 0 
614 1 -20.2792 -16.114 0 
616 1 -19.1485 -16.0722 0 
618 1 -18.0176 -16.0294 0 
620 1 -16.8865 -15.9855 0 
622 1 -15.7552 -15.9405 0 
624 1 -14.6238 -15.8944 0 
626 1 -13.4923 -15.8472 0 
628 1 -12.3609 -15.7988 0 
630 1 -11.2295 -15.7493 0 
631 1 -10.6401 -16.7 0 
632 1 -10.0983 -15.6987 0 
633 1 -9.50954 -16.65 0 
634 1 -8.96737 -15.6471 0 
635 1 -8.37937 -16.5991 0 
636 1 -7.83694 -15.5947 0 
637 1 -7.24976 -16.5477 0 
639 1 -6.12085 -16.4959 0 
641 1 -4.99275 -16.4439 0 
643 1 -3.86559 -16.3923 0 
645 1 -2.73945 -16.3412 0 
647 1 -1.61436 -16.2912 0 
649 1 -0.490307 -16.2427 0 
651 1 0.632779 -16.1962 0 
653 1 1.75504 -16.1519 0 
655 1 2.87664 -16.1103 0 
657 1 3.99781 -16.0715 0 
659 1 5.11876 -16.0357 0 
661 1 6.23971 -16.0029 0 
663 1 7.36086 -15.9731 0 
665 1 8.48236 -15.9462 0 
667 1 9.60435 -15.9219 0 
669 1 10.7269 -15.9 0 
671 1 11.8501 -15.8804 0 
673 1 12.9739 -15.8629 0 
675 1 14.0983 -15.8471 0 
677 1 15.2234 -15.8329 0 
679 1 16.349 -15.8202 0 
681 1 17.4752 -15.8087 0 
683 1 18.6019 -15.7983 0 
685 1 19.729 -15.7889 0 
687 1 20.8565 -15.7803 0 
689 1 21.9844 -15.7725 0 
691 1 23.1127 -15.7653 0 
693 1 24.2412 -15.7588 0 
695 2 25.3699 -15.7527 0 
697 2 26.4989 -15.7471 0 
699 2 27.6281 -15.742 0 
701 2 -27.6483 -15.3934 0 
703 2 -26.5193 -15.357 0 
705 2 -25.3901 -15.3199 0 
707 2 -24.2607 -15.282 0 
709 1 -23.1309 -15.2433 0 
711 1 -22.001 -15.2037 0 
713 1 -20.8707 -15.1632 0 
715 1 -19.7402 -15.1217 0 
717 1 -18.6094 -15.0791 0 
719 1 -17.4783 -15.0355 0 
721 1 -16.3471 -14.9908 0 
723 1 -15.2156 -14.9449 0 
725 1 -14.0839 -14.8977 0 
727 1 -12.9522 -14.8493 0 
729 1 -11.8204 -14.7997 0 
731 1 -10.6886 -14.7488 0 
733 1 -9.55709 -14.6966 0 
735 1 -8.42587 -14.6434 0 
638 1 -6.70712 -15.5416 0 
737 1 -7.29514 -14.5892 0 
640 1 -5.57807 -15.4881 0 
739 1 -6.16509 -14.5342 0 
642 1 -4.44994 -15.4345 0 
741 1 -5.03589 -14.4788 0 
644 1 -3.32285 -15.3812 0 
743 1 -3.90774 -14.4234 0 
646 1 -2.1969 -15.3288 0 
648 1 -1.07212 -15.2777 0 
650 1 0.0515558 -15.2284 0 
652 1 1.17423 -15.1815 0 
654 1 2.29608 -15.1373 0 
656 1 3.41735 -15.0961 0 
658 1 4.5383 -15.0582 0 
660 1 5.65919 -15.0235 0 
662 1 6.78024 -14.9922 0 
664 1 7.90166 -14.964 0 
666 1 9.0236 -14.9388 0 
668 1 10.1462 -14.9163 0 
670 1 11.2694 -14.8962 0 
672 1 12.3934 -14.8783 0 
674 1 13.518 -14.8624 0 
676 1 14.6433 -14.8482 0 
678 1 15.7692 -14.8355 0 
680 1 16.8957 -14.8241 0 
682 1 18.0228 -14.8139 0 
684 1 19.1503 -14.8046 0 
686 1 20.2782 -14.7962 0 
688 1 21.4065 -14.7886 0 
690 1 22.5352 -14.7817 0 
692 1 23.6641 -14.7754 0 
694 1 24.7932 -14.7696 0 
696 2 25.9226 -14.7642 0 
698 2 27.0521 -14.7592 0 
700 2 28.1818 -14.7547 0 
702 2 -27.11 -14.4044 0 
801 2 -27.7009 -13.4516 0 
704 2 -25.9811 -14.3676 0 
803 2 -26.5724 -13.4152 0 
706 2 -24.852 -14.3301 0 
805 2 -25.4437 -13.3781 0 
708 1 -23.7226 -14.2917 0 
807 2 -24.3146 -13.3401 0 
710 1 -22.5929 -14.2525 0 
809 1 -23.1853 -13.3013 0 
712 1 -21.4629 -14.2124 0 
714 1 -20.3326 -14.1713 0 
716 1 -19.202 -14.1291 0 
718 1 -18.0712 -14.0859 0 
720 1 -16.94 -14.0415 0 
722 1 -15.8085 -13.9959 0 
724 1 -14.6768 -13.9489 0 
726 1 -13.5449 -13.9007 0 
728 1 -12.4129 -13.8511 0 
730 1 -11.2807 -13.8 0 
732 1 -10.1486 -13.7476 0 
734 1 -9.01669 -13.6937 0 
736 1 -7.88509 -13.6386 0 
738 1 -6.75403 -13.5825 0 
740 1 -5.62372 -13.5254 0 
742 1 -4.49439 -13.468 0 
744 1 -3.36624 -13.4106 0 
745 1 -2.78078 -14.3685 0 
746 1 -2.23944 -13.3539 0 
747 1 -1.65508 -14.3147 0 
748 1 -1.11407 -13.2985 0 
749 1 -0.530656 -14.2624 0 
751 1 0.592574 -14.2125 0 
753 1 1.71479 -14.1653 0 
755 1 2.83624 -14.1214 0 
757 1 3.95722 -14.081 0 
759 1 5.07804 -14.0443 0 
761 1 6.19899 -14.0112 0 
763 1 7.32032 -13.9816 0 
765 1 8.44221 -13.9553 0 
767 1 9.56478 -13.9321 0 
769 1 10.6881 -13.9115 0 
771 1 11.8122 -13.8933 0 
773 1 12.9371 -13.8773 0 
775 1 14.0627 -13.8631 0 
777 1 15.189 -13.8504 0 
779 1 16.3159 -13.8392 0 
781 1 17.4433 -13.8291 0 
783 1 18.5712 -13.8201 0 
785 1 19.6996 -13.8119 0 
787 1 20.8284 -13.8046 0 
789 1 21.9574 -13.7979 0 
791 1 23.0868 -13.7918 0 
793 1 24.2164 -13.7862 0 
795 2 25.3462 -13.7811 0 
797 2 26.4761 -13.7764 0 
799 2 27.6062 -13.772 0 
802 2 -27.164 -12.4626 0 
804 2 -26.0357 -12.4259 0 
806 2 -24.9071 -12.3884 0 
808 1 -23.7781 -12.35 0 
810 1 -22.6489 -12.3107 0 
811 1 -22.0557 -13.2616 0 
812 1 -21.5194 -12.2705 0 
813 1 -20.9257 -13.2209 0 
814 1 -20.3895 -12.2293 0 
815 1 -19.7955 -13.1792 0 
816 1 -19.2593 -12.187 0 
817 1 -18.6648 -13.1364 0 
818 1 -18.1287 -12.1435 0 
819 1 -17.5339 -13.0924 0 
821 1 -16.4026 -13.0472 0 
823 1 -15.271 -13.0006 0 
825 1 -14.1391 -12.9527 0 
827 1 -13.0069 -12.9033 0 
829 1 -11.8745 -12.8523 0 
831 1 -10.742 -12.7998 0 
833 1 -9.60951 -12.7456 0 
835 1 -8.47715 -12.69 0 
837 1 -7.34514 -12.6328 0 
839 1 -6.2137 -12.5744 0 
841 1 -5.08311 -12.5151 0 
843 1 -3.95364 -12.4554 0 
845 1 -2.82553 -12.3958 0 
847 1 -1.69896 -12.3371 0 
750 1 0.00990686 -13.2453 0 
849 1 -0.574003 -12.2802 0 
851 1 0.549433 -12.2261 0 
752 1 1.13263 -13.1948 0 
853 1 1.67159 -12.1754 0 
754 1 2.25436 -13.1478 0 
855 1 2.79283 -12.1288 0 
756 1 3.37542 -13.1045 0 
758 1 4.4962 -13.0653 0 
760 1 5.61705 -13.0302 0 
762 1 6.73827 -12.999 0 
764 1 7.8601 -12.9715 0 
766 1 8.98269 -12.9474 0 
768 1 10.1061 -12.9263 0 
770 1 11.2304 -12.9079 0 
772 1 12.3556 -12.8917 0 
774 1 13.4815 -12.8775 0 
776 1 14.6082 -12.865 0 
778 1 15.7355 -12.8539 0 
780 1 16.8634 -12.844 0 
782 1 17.9918 -12.8353 0 
784 1 19.1207 -12.8274 0 
786 1 20.2499 -12.8203 0 
788 1 21.3795 -12.8139 0 
790 1 22.5093 -12.8081 0 
792 1 23.6394 -12.8027 0 
794 1 24.7696 -12.7979 0 
796 2 25.9 -12.7934 0 
798 2 27.0306 -12.7893 0 
800 2 28.1612 -12.7854 0 
901 2 -27.7557 -11.5099 0 
903 2 -26.6279 -11.4735 0 
905 2 -25.4997 -11.4364 0 
907 2 -24.3713 -11.3985 0 
909 1 -23.2426 -11.3597 0 
911 1 -22.1135 -11.32 0 
913 1 -20.9841 -11.2792 0 
915 1 -19.8544 -11.2375 0 
917 1 -18.7242 -11.1945 0 
820 1 -16.9977 -12.0987 0 
919 1 -17.5937 -11.1503 0 
822 1 -15.8663 -12.0526 0 
921 1 -16.4627 -11.1048 0 
824 1 -14.7346 -12.0051 0 
923 1 -15.3313 -11.0578 0 
826 1 -13.6025 -11.9561 0 
925 1 -14.1994 -11.0093 0 
828 1 -12.47 -11.9054 0 
927 1 -13.0671 -10.9591 0 
830 1 -11.3373 -11.853 0 
832 1 -10.2044 -11.7989 0 
834 1 -9.07144 -11.7429 0 
836 1 -7.9386 -11.6852 0 
838 1 -6.80611 -11.6258 0 
840 1 -5.67425 -11.5649 0 
842 1 -4.54334 -11.503 0 
844 1 -3.41373 -11.4407 0 
846 1 -2.28571 -11.3786 0 
848 1 -1.15947 -11.3179 0 
850 1 -0.0350451 -11.2595 0 
852 1 1.08775 -11.2047 0 
854 1 2.2093 -11.1541 0 
857 1 3.9136 -12.0867 0 
856 1 3.33011 -11.1086 0 
859 1 5.03433 -12.0492 0 
858 1 4.45075 -11.0682 0 
861 1 6.15543 -12.0161 0 
860 1 5.5717 -11.033 0 
863 1 7.27718 -11.9873 0 
862 1 6.69336 -11.0026 0 
865 1 8.39979 -11.9623 0 
864 1 7.81599 -10.9765 0 
867 1 9.52334 -11.9406 0 
869 1 10.6479 -11.9218 0 
871 1 11.7733 -11.9056 0 
873 1 12.8997 -11.8914 0 
875 1 14.0268 -11.879 0 
877 1 15.1547 -11.8682 0 
879 1 16.2831 -11.8586 0 
881 1 17.4121 -11.8501 0 
883 1 18.5415 -11.8426 0 
885 1 19.6713 -11.8358 0 
887 1 20.8014 -11.8297 0 
889 1 21.9318 -11.8241 0 
891 1 23.0623 -11.8191 0 
893 1 24.1931 -11.8145 0 
895 2 25.3239 -11.8103 0 
897 2 26.4549 -11.8064 0 
899 2 27.586 -11.8028 0 
902 2 -27.2202 -10.5209 0 
904 2 -26.0925 -10.4842 0 
906 2 -24.9646 -10.4468 0 
908 1 -23.8365 -10.4085 0 
910 1 -22.708 -10.3692 0 
912 1 -21.5791 -10.329 0 
914 1 -20.4499 -10.2878 0 
916 1 -19.3203 -10.2454 0 
918 1 -18.1903 -10.2018 0 
920 1 -17.0599 -10.1569 0 
922 1 -15.929 -10.1106 0 
924 1 -14.7975 -10.0627 0 
926 1 -13.6656 -10.0132 0 
928 1 -12.5332 -9.96181 0 
929 1 -11.9344 -10.9071 0 
930 1 -11.4003 -9.90845 0 
931 1 -10.8013 -10.8533 0 
932 1 -10.2669 -9.85296 0 
933 1 -9.66802 -10.7974 0 
935 1 -8.53457 -10.7394 0 
937 1 -7.40119 -10.6794 0 
939 1 -6.26814 -10.6174 0 
941 1 -5.13579 -10.5538 0 
943 1 -4.00453 -10.4889 0 
945 1 -2.87479 -10.4235 0 
947 1 -1.74693 -10.3588 0 
949 1 -0.621153 -10.2959 0 
951 1 0.5026 -10.2362 0 
953 1 1.62467 -10.181 0 
955 1 2.74563 -10.1313 0 
957 1 3.86618 -10.0875 0 
959 1 4.98697 -10.0496 0 
961 1 6.10852 -10.0174 0 
963 1 7.23117 -9.99011 0 
965 1 8.35506 -9.96716 0 
866 1 8.93969 -10.9542 0 
967 1 9.48021 -9.94784 0 
868 1 10.0645 -10.9352 0 
969 1 10.6066 -9.93151 0 
870 1 11.1904 -10.9189 0 
971 1 11.734 -9.91764 0 
872 1 12.3172 -10.9048 0 
973 1 12.8623 -9.90578 0 
874 1 13.4449 -10.8927 0 
975 1 13.9914 -9.89556 0 
876 1 14.5733 -10.8821 0 
977 1 15.1212 -9.8867 0 
878 1 15.7024 -10.8728 0 
979 1 16.2515 -9.87894 0 
880 1 16.832 -10.8647 0 
981 1 17.3823 -9.87211 0 
882 1 17.962 -10.8575 0 
983 1 18.5134 -9.86604 0 
884 1 19.0924 -10.851 0 
985 1 19.6447 -9.86063 0 
886 1 20.2231 -10.8452 0 
987 1 20.7763 -9.85576 0 
888 1 21.3541 -10.84 0 
890 1 22.4852 -10.8353 0 
989 1 21.908 -9.85136 0 
892 1 23.6165 -10.831 0 
991 1 23.0399 -9.84736 0 
894 1 24.7478 -10.8271 0 
993 1 24.1718 -9.8437 0 
896 2 25.8793 -10.8234 0 
995 2 25.3037 -9.84035 0 
898 2 27.0108 -10.8201 0 
997 2 26.4357 -9.83726 0 
900 2 28.1423 -10.817 0 
999 2 27.5677 -9.8344 0 
1001 2 -27.8125 -9.56805 0 
1003 2 -26.6854 -9.5318 0 
1005 2 -25.5581 -9.49477 0 
1007 2 -24.4305 -9.45693 0 
1009 1 -23.3026 -9.4182 0 
1011 1 -22.1744 -9.37854 0 
1013 1 -21.0458 -9.33786 0 
1015 1 -19.9169 -9.29609 0 
1017 1 -18.7875 -9.25314 0 
1019 1 -17.6577 -9.20891 0 
1021 1 -16.5275 -9.16329 0 
1023 1 -15.3967 -9.11616 0 
1025 1 -14.2654 -9.06736 0 
1027 1 -13.1334 -9.01675 0 
1029 1 -12.0009 -8.96413 0 
1031 1 -10.8678 -8.90932 0 
934 1 -9.13309 -9.79519 0 
1033 1 -9.73407 -8.85211 0 
936 1 -7.99909 -9.73504 0 
1035 1 -8.59984 -8.7923 0 
938 1 -6.86508 -9.67247 0 
1037 1 -7.46525 -8.72972 0 
940 1 -5.7314 -9.60758 0 
1039 1 -6.33054 -8.66427 0 
942 1 -4.59847 -9.54066 0 
944 1 -3.46682 -9.47233 0 
946 1 -2.33698 -9.40357 0 
948 1 -1.20939 -9.33578 0 
950 1 -0.0842454 -9.27065 0 
952 1 1.03867 -9.20994 0 
954 1 2.15996 -9.15512 0 
956 1 3.28047 -9.10708 0 
958 1 4.40108 -9.066 0 
960 1 5.5225 -9.03153 0 
962 1 6.64517 -9.00291 0 
964 1 7.76931 -8.97926 0 
966 1 8.8949 -8.9597 0 
968 1 10.0219 -8.94345 0 
970 1 11.15 -8.92984 0 
972 1 12.2791 -8.91836 0 
974 1 13.4091 -8.90858 0 
976 1 14.5397 -8.90017 0 
978 1 15.6708 -8.89287 0 
980 1 16.8023 -8.88647 0 
982 1 17.9342 -8.88083 0 
984 1 19.0663 -8.87581 0 
986 1 20.1985 -8.87132 0 
988 1 21.3309 -8.86727 0 
990 1 22.4633 -8.86359 0 
992 1 23.5958 -8.86024 0 
994 1 24.7283 -8.85717 0 
996 2 25.8608 -8.85435 0 
998 2 26.9933 -8.85174 0 
1000 2 28.1257 -8.84931 0 
1002 2 -27.2783 -8.57905 0 
1101 2 -27.8711 -7.62598 0 
1004 2 -26.1516 -8.54247 0 
1103 2 -26.7449 -7.58983 0 
1006 2 -25.0246 -8.50509 0 
1105 2 -25.6186 -7.5529 0 
1008 1 -23.8973 -8.46686 0 
1107 2 -24.492 -7.51516 0 
1010 1 -22.7698 -8.42772 0 
1012 1 -21.6419 -8.38761 0 
1014 1 -20.5137 -8.34644 0 
1016 1 -19.3851 -8.30414 0 
1018 1 -18.2561 -8.26061 0 
1020 1 -17.1266 -8.21573 0 
1022 1 -15.9966 -8.16938 0 
1024 1 -14.866 -8.12142 0 
1026 1 -13.7349 -8.07168 0 
1028 1 -12.6031 -8.01996 0 
1030 1 -11.4706 -7.96606 0 
1032 1 -10.3373 -7.90973 0 
1034 1 -9.20331 -7.8507 0 
1036 1 -8.06863 -7.78868 0 
1038 1 -6.9334 -7.7234 0 
1041 1 -5.19611 -8.59602 0 
1040 1 -5.79788 -7.65469 0 
1043 1 -4.06249 -8.52531 0 
1042 1 -4.66255 -7.58253 0 
1045 1 -2.93039 -8.45292 0 
1044 1 -3.5281 -7.50731 0 
1047 1 -1.8005 -8.38019 0 
1049 1 -0.673359 -8.30906 0 
1051 1 0.450926 -8.24184 0 
1053 1 1.57286 -8.18074 0 
1055 1 2.69344 -8.12733 0 
1057 1 3.81385 -8.0822 0 
1059 1 4.93509 -8.045 0 
1061 1 6.05781 -8.0148 0 
1063 1 7.18226 -7.9904 0 
1065 1 8.30843 -7.97067 0 
1067 1 9.43614 -7.9546 0 
1069 1 10.5652 -7.94138 0 
1071 1 11.6952 -7.93038 0 
1073 1 12.8262 -7.92113 0 
1075 1 13.9577 -7.91325 0 
1077 1 15.0898 -7.90647 0 
1079 1 16.2222 -7.90057 0 
1081 1 17.3549 -7.89539 0 
1083 1 18.4878 -7.89081 0 
1085 1 19.6208 -7.88671 0 
1087 1 20.7539 -7.88303 0 
1089 1 21.8869 -7.8797 0 
1091 1 23.02 -7.87667 0 
1093 1 24.1531 -7.87389 0 
1095 2 25.2861 -7.87134 0 
1097 2 26.419 -7.86899 0 
1099 2 27.5519 -7.8668 0 
1102 2 -27.3381 -6.63684 0 
1104 2 -26.2124 -6.60035 0 
1106 2 -25.0865 -6.56307 0 
1108 1 -23.9604 -6.52496 0 
1109 1 -23.3651 -7.47654 0 
1110 1 -22.834 -6.48594 0 
1111 1 -22.238 -7.43698 0 
1112 1 -21.7074 -6.44595 0 
1113 1 -21.1106 -7.39641 0 
1114 1 -20.5805 -6.40491 0 
1115 1 -19.9828 -7.35476 0 
1116 1 -19.4532 -6.36275 0 
1117 1 -18.8546 -7.31191 0 
1119 1 -17.726 -7.26778 0 
1121 1 -16.597 -7.22224 0 
1123 1 -15.4674 -7.17515 0 
1125 1 -14.3372 -7.12634 0 
1127 1 -13.2063 -7.07564 0 
1129 1 -12.0748 -7.0228 0 
1131 1 -10.9424 -6.96758 0 
1133 1 -9.80913 -6.90966 0 
1135 1 -8.67497 -6.84869 0 
1137 1 -7.53989 -6.78429 0 
1139 1 -6.40399 -6.71603 0 
1141 1 -5.26756 -6.64358 0 
1143 1 -4.13113 -6.5668 0 
1145 1 -2.99565 -6.48608 0 
1046 1 -2.39547 -7.43005 0 
1147 1 -1.86241 -6.40282 0 
1048 1 -1.26563 -7.35264 0 
1050 1 -0.139208 -7.2779 0 
1052 1 0.983927 -7.20903 0 
1054 1 2.10481 -7.14871 0 
1056 1 3.22503 -7.09832 0 
1058 1 4.34606 -7.05768 0 
1060 1 5.46883 -7.02558 0 
1062 1 6.59371 -7.00041 0 
1064 1 7.72063 -6.98061 0 
1066 1 8.84933 -6.96487 0 
1068 1 9.97946 -6.95219 0 
1070 1 11.1107 -6.94182 0 
1072 1 12.2428 -6.93321 0 
1074 1 13.3755 -6.92596 0 
1076 1 14.5086 -6.91977 0 
1078 1 15.6421 -6.91442 0 
1080 1 16.7757 -6.90974 0 
1082 1 17.9094 -6.90562 0 
1084 1 19.0432 -6.90195 0 
1086 1 20.177 -6.89866 0 
1088 1 21.3108 -6.89569 0 
1090 1 22.4445 -6.89299 0 
1092 1 23.5781 -6.89052 0 
1094 1 24.7116 -6.88825 0 
1096 2 25.8451 -6.88616 0 
1098 2 26.9784 -6.88422 0 
1100 2 28.1116 -6.88241 0 
1201 2 -27.9311 -5.68349 0 