ITEM: TIMESTEP
1000
ITEM: NUMBER OF ATOMS
2850
ITEM: BOX BOUNDS ff ff pp
-42.092 42.092
-42.092 42.092
-0.280613 0.280613
ITEM: ATOMS id type xu yu zu 
1 2 -27.3398 -28.9988 0 
3 2 -26.2107 -28.9642 0 
5 2 -25.0816 -28.9291 0 
7 2 -23.9525 -28.8936 0 
9 2 -22.8235 -28.8577 0 
11 2 -21.6944 -28.8213 0 
13 2 -20.5655 -28.7844 0 
15 2 -19.4366 -28.7472 0 
17 2 -18.3079 -28.7095 0 
19 2 -17.1793 -28.6715 0 
21 2 -16.0508 -28.6331 0 
23 2 -14.9226 -28.5944 0 
25 2 -13.7947 -28.5554 0 
27 2 -12.667 -28.5163 0 
29 2 -11.5396 -28.477 0 
31 2 -10.4126 -28.4376 0 
33 2 -9.28592 -28.3982 0 
35 2 -8.15967 -28.3589 0 
37 2 -7.03386 -28.3198 0 
39 2 -5.90848 -28.281 0 
2 2 -26.7941 -28.0086 0 
4 2 -25.6649 -27.9736 0 
6 2 -24.5357 -27.9381 0 
8 2 -23.4065 -27.902 0 
10 2 -22.2773 -27.8656 0 
12 2 -21.1481 -27.8286 0 
14 2 -20.019 -27.7912 0 
16 2 -18.89 -27.7533 0 
18 2 -17.7611 -27.715 0 
20 2 -16.6324 -27.6763 0 
22 2 -15.5039 -27.6373 0 
24 2 -14.3755 -27.5979 0 
26 2 -13.2475 -27.5582 0 
28 2 -12.1197 -27.5183 0 
30 2 -10.9923 -27.4783 0 
32 2 -9.86522 -27.4382 0 
34 2 -8.73856 -27.3981 0 
36 2 -7.61233 -27.3581 0 
38 2 -6.48656 -27.3184 0 
40 2 -5.36126 -27.2789 0 
41 2 -4.78357 -28.2426 0 
42 2 -4.23645 -27.24 0 
43 2 -3.65912 -28.2046 0 
44 2 -3.11213 -27.2015 0 
45 2 -2.53513 -28.1673 0 
46 2 -1.98828 -27.1638 0 
47 2 -1.41159 -28.1307 0 
48 2 -0.8649 -27.1269 0 
49 2 -0.288464 -28.095 0 
51 2 0.834263 -28.0602 0 
53 2 1.95663 -28.0264 0 
55 2 3.07869 -27.9937 0 
57 2 4.20048 -27.9622 0 
59 2 5.32207 -27.9319 0 
61 2 6.4435 -27.9029 0 
63 2 7.56483 -27.8752 0 
65 2 8.68613 -27.8488 0 
67 2 9.80743 -27.8237 0 
69 2 10.9288 -27.8 0 
71 2 12.0503 -27.7775 0 
73 2 13.1719 -27.7563 0 
75 2 14.2937 -27.7363 0 
77 2 15.4157 -27.7174 0 
79 2 16.538 -27.6997 0 
81 2 17.6605 -27.683 0 
83 2 18.7832 -27.6673 0 
85 2 19.9063 -27.6526 0 
87 2 21.0296 -27.6388 0 
89 2 22.1532 -27.6258 0 
91 2 23.2771 -27.6136 0 
93 2 24.4012 -27.6022 0 
95 2 25.5256 -27.5914 0 
97 2 26.6503 -27.5812 0 
99 2 27.7752 -27.5717 0 
101 2 -27.378 -27.0533 0 
103 2 -26.2487 -27.0183 0 
102 2 -26.833 -26.0633 0 
105 2 -25.1194 -26.9828 0 
104 2 -25.7037 -26.0278 0 
107 2 -23.9901 -26.9468 0 
106 2 -24.5742 -25.9918 0 
109 2 -22.8607 -26.9102 0 
108 1 -23.4441 -25.9548 0 
111 2 -21.7314 -26.8732 0 
113 2 -20.6021 -26.8357 0 
115 2 -19.4729 -26.7977 0 
117 2 -18.3437 -26.7591 0 
119 2 -17.2147 -26.7202 0 
121 2 -16.0858 -26.6808 0 
123 2 -14.9572 -26.641 0 
125 2 -13.8287 -26.6009 0 
127 2 -12.7006 -26.5605 0 
129 2 -11.5727 -26.5198 0 
131 2 -10.4452 -26.479 0 
133 2 -9.31813 -26.4382 0 
135 2 -8.19146 -26.3973 0 
137 2 -7.06526 -26.3566 0 
139 2 -5.93954 -26.3162 0 
141 2 -4.81433 -26.2762 0 
143 2 -3.68963 -26.2366 0 
145 2 -2.56545 -26.1977 0 
147 2 -1.44177 -26.1596 0 
50 2 0.258046 -27.0909 0 
149 2 -0.318563 -26.1224 0 
52 2 1.38059 -27.056 0 
151 2 0.804196 -26.0862 0 
54 2 2.50279 -27.0222 0 
153 2 1.92656 -26.0512 0 
56 2 3.62468 -26.9896 0 
155 2 3.04857 -26.0174 0 
58 2 4.74633 -26.9582 0 
157 2 4.1703 -25.9849 0 
60 2 5.86779 -26.9282 0 
159 2 5.2918 -25.9538 0 
62 2 6.98913 -26.8996 0 
64 2 8.11041 -26.8723 0 
66 2 9.23169 -26.8465 0 
68 2 10.353 -26.822 0 
70 2 11.4745 -26.7989 0 
72 2 12.596 -26.7771 0 
74 2 13.7178 -26.7566 0 
76 2 14.8398 -26.7373 0 
78 2 15.962 -26.7192 0 
80 2 17.0845 -26.7023 0 
82 2 18.2073 -26.6863 0 
84 2 19.3304 -26.6714 0 
86 2 20.4538 -26.6575 0 
88 2 21.5774 -26.6444 0 
90 2 22.7014 -26.6321 0 
92 2 23.8256 -26.6206 0 
94 2 24.9501 -26.6098 0 
96 2 26.0749 -26.5996 0 
98 2 27.2 -26.5901 0 
100 2 28.3253 -26.5811 0 
201 2 -27.4179 -25.1085 0 
203 2 -26.2885 -25.0731 0 
205 2 -25.159 -25.0372 0 
207 2 -24.0295 -25.0007 0 
209 1 -22.8992 -24.9613 0 
110 1 -22.3132 -25.9154 0 
211 1 -21.7675 -24.9212 0 
112 1 -21.1826 -25.8772 0 
213 1 -20.636 -24.8816 0 
114 1 -20.0539 -25.8395 0 
215 1 -19.5069 -24.8418 0 
116 1 -18.9263 -25.8002 0 
217 1 -18.3787 -24.8021 0 
118 1 -17.7975 -25.7603 0 
120 1 -16.6693 -25.7202 0 
122 1 -15.5408 -25.6829 0 
124 1 -14.4126 -25.6431 0 
126 1 -13.2847 -25.6007 0 
128 1 -12.1576 -25.5564 0 
130 1 -11.0294 -25.515 0 
132 1 -9.90183 -25.473 0 
134 1 -8.77528 -25.4301 0 
136 1 -7.64919 -25.3883 0 
138 1 -6.52366 -25.3482 0 
140 1 -5.39896 -25.3083 0 
142 1 -4.27456 -25.2679 0 
144 1 -3.15053 -25.2275 0 
146 1 -2.02637 -25.1885 0 
148 1 -0.902841 -25.15 0 
150 1 0.219596 -25.1131 0 
152 1 1.34268 -25.0779 0 
154 1 2.46522 -25.0431 0 
156 1 3.58652 -25.0104 0 
158 1 4.70788 -24.9787 0 
160 1 5.82969 -24.9489 0 
161 2 6.41316 -25.9242 0 
162 1 6.95198 -24.9213 0 
163 2 7.53443 -25.896 0 
164 1 8.07447 -24.8941 0 
165 2 8.65568 -25.8693 0 
167 2 9.77697 -25.844 0 
166 1 9.19731 -24.8672 0 
169 2 10.8984 -25.8202 0 
168 1 10.3193 -24.8401 0 
171 2 12.0199 -25.7978 0 
170 1 11.441 -24.8159 0 
173 2 13.1416 -25.7768 0 
172 1 12.5621 -24.7938 0 
175 2 14.2636 -25.7571 0 
177 2 15.3858 -25.7386 0 
179 2 16.5083 -25.7213 0 
181 2 17.6311 -25.7052 0 
183 2 18.7543 -25.6901 0 
185 2 19.8777 -25.6759 0 
187 2 21.0014 -25.6627 0 
189 2 22.1254 -25.6504 0 
191 2 23.2498 -25.6388 0 
193 2 24.3744 -25.628 0 
195 2 25.4993 -25.6179 0 
197 2 26.6245 -25.6084 0 
199 2 27.75 -25.5994 0 
202 2 -26.8739 -24.1187 0 
204 2 -25.7444 -24.0828 0 
206 2 -24.6148 -24.0464 0 
208 1 -23.4854 -24.0089 0 
210 1 -22.3544 -23.9673 0 
212 1 -21.2226 -23.9264 0 
214 1 -20.0912 -23.8855 0 
216 1 -18.9609 -23.8451 0 
219 1 -17.2515 -24.7605 0 
218 1 -17.8323 -23.8034 0 
221 1 -16.1233 -24.7235 0 
220 1 -16.7029 -23.7649 0 
222 1 -15.5756 -23.7251 0 
223 1 -14.9959 -24.6848 0 
224 1 -14.4503 -23.6821 0 
225 1 -13.8685 -24.6413 0 
226 1 -13.3257 -23.6344 0 
227 1 -12.7418 -24.5939 0 
229 1 -11.6143 -24.5513 0 
231 1 -10.4872 -24.5102 0 
233 1 -9.36115 -24.4665 0 
235 1 -8.23463 -24.4227 0 
237 1 -7.10701 -24.3806 0 
239 1 -5.98176 -24.3393 0 
241 1 -4.85851 -24.2981 0 
243 1 -3.73411 -24.2565 0 
245 1 -2.60917 -24.2165 0 
247 1 -1.48606 -24.1776 0 
249 1 -0.363753 -24.1391 0 
251 1 0.758965 -24.1038 0 
253 1 1.88117 -24.0681 0 
255 1 3.00254 -24.0335 0 
257 1 4.12354 -24.0021 0 
259 1 5.24522 -23.9719 0 
261 1 6.36699 -23.9434 0 
263 1 7.48884 -23.9158 0 
265 1 8.61187 -23.8895 0 
267 1 9.73493 -23.8623 0 
269 1 10.8583 -23.8369 0 
271 1 11.981 -23.8133 0 
273 1 13.1022 -23.7943 0 
174 1 13.6826 -24.7772 0 
275 1 14.2218 -23.7799 0 
176 1 14.8035 -24.7613 0 
277 1 15.3433 -23.7645 0 
178 1 15.9257 -24.7443 0 
279 1 16.4686 -23.7483 0 
180 1 17.0489 -24.7286 0 
281 1 17.5943 -23.7341 0 
182 1 18.172 -24.7125 0 
283 1 18.7189 -23.7194 0 
184 1 19.2941 -24.6981 0 
285 1 19.8408 -23.7051 0 
186 1 20.417 -24.6837 0 
287 1 20.9636 -23.6916 0 
188 1 21.5425 -24.6718 0 
289 1 22.088 -23.6784 0 
190 1 22.6695 -24.6579 0 
291 1 23.2158 -23.6623 0 
192 1 23.7952 -24.6438 0 
293 1 24.3439 -23.649 0 
194 1 24.9204 -24.6335 0 
295 2 25.4729 -23.6443 0 
196 2 26.0488 -24.6264 0 
198 2 27.1745 -24.6176 0 
200 2 28.3003 -24.6093 0 
301 2 -27.4598 -23.1644 0 
303 2 -26.3303 -23.1287 0 
305 2 -25.2007 -23.0924 0 
307 2 -24.071 -23.0555 0 
309 1 -22.9422 -23.0162 0 
311 1 -21.8107 -22.974 0 
313 1 -20.6786 -22.9319 0 
315 1 -19.5464 -22.8904 0 
317 1 -18.4153 -22.8484 0 
319 1 -17.2847 -22.8084 0 
321 1 -16.1568 -22.7665 0 
323 1 -15.0316 -22.7229 0 
325 1 -13.9072 -22.677 0 
327 1 -12.7809 -22.6311 0 
228 1 -12.1987 -23.5887 0 
329 1 -11.6536 -22.5853 0 
230 1 -11.0716 -23.547 0 
331 1 -10.5274 -22.5407 0 
232 1 -9.94571 -23.504 0 
333 1 -9.40096 -22.4967 0 
234 1 -8.81962 -23.4591 0 
236 1 -7.69247 -23.4165 0 
238 1 -6.56607 -23.373 0 
240 1 -5.44146 -23.3293 0 
242 1 -4.31722 -23.2876 0 
244 1 -3.19177 -23.2459 0 
246 1 -2.06782 -23.2043 0 
248 1 -0.945986 -23.1651 0 
250 1 0.176294 -23.1282 0 
252 1 1.29797 -23.0915 0 
254 1 2.41914 -23.056 0 
256 1 3.54043 -23.0232 0 
258 1 4.6622 -22.9929 0 
260 1 5.78501 -22.9631 0 
262 1 6.90744 -22.9347 0 
264 1 8.02976 -22.9093 0 
266 1 9.15167 -22.8833 0 
268 1 10.2742 -22.8588 0 
270 1 11.3971 -22.8356 0 
272 1 12.5201 -22.8136 0 
274 1 13.6417 -22.7952 0 
276 1 14.7623 -22.7805 0 
278 1 15.886 -22.7665 0 
280 1 17.0136 -22.7521 0 
282 1 18.139 -22.7388 0 
284 1 19.2634 -22.7238 0 
286 1 20.3868 -22.7111 0 
288 1 21.5124 -22.6972 0 
290 1 22.6396 -22.6845 0 
292 1 23.7696 -22.6693 0 
294 1 24.8997 -22.662 0 
297 2 26.5987 -23.6355 0 
296 2 26.0228 -22.6533 0 
299 2 27.7248 -23.6273 0 
298 2 27.149 -22.6452 0 
300 2 28.2755 -22.6376 0 
302 2 -26.9167 -22.1747 0 
304 2 -25.7871 -22.1385 0 
306 2 -24.6574 -22.1018 0 
308 1 -23.5278 -22.0634 0 
310 1 -22.399 -22.0239 0 
312 1 -21.2676 -21.9819 0 
314 1 -20.1328 -21.9391 0 
316 1 -18.9987 -21.895 0 
318 1 -17.8674 -21.8527 0 
320 1 -16.7394 -21.8099 0 
322 1 -15.6127 -21.7649 0 
324 1 -14.4864 -21.7192 0 
326 1 -13.3604 -21.6743 0 
328 1 -12.2335 -21.6276 0 
330 1 -11.106 -21.5795 0 
332 1 -9.97904 -21.5342 0 
334 1 -8.85317 -21.4904 0 
335 1 -8.27414 -22.4525 0 
336 1 -7.72816 -21.4445 0 
337 1 -7.14886 -22.4084 0 
338 1 -6.60385 -21.399 0 
339 1 -6.02409 -22.3644 0 
340 1 -5.47875 -21.3545 0 
341 1 -4.89861 -22.32 0 
342 1 -4.35252 -21.3093 0 
343 1 -3.7731 -22.2772 0 
345 1 -2.64786 -22.2338 0 
347 1 -1.52398 -22.1908 0 
349 1 -0.402481 -22.1517 0 
351 1 0.717778 -22.1139 0 
353 1 1.83881 -22.0783 0 
355 1 2.96094 -22.0442 0 
357 1 4.08362 -22.0124 0 
359 1 5.20632 -21.9833 0 
361 1 6.32944 -21.9544 0 
363 1 7.45285 -21.928 0 
365 1 8.5746 -21.9033 0 
367 1 9.69604 -21.8793 0 
369 1 10.8174 -21.8561 0 
371 1 11.9387 -21.8341 0 
373 1 13.0602 -21.8127 0 
375 1 14.1819 -21.7947 0 
377 1 15.3043 -21.7815 0 
379 1 16.429 -21.7706 0 
381 1 17.5544 -21.7549 0 
383 1 18.6803 -21.7424 0 
385 1 19.8079 -21.7275 0 
387 1 20.936 -21.7173 0 
389 1 22.0651 -21.7051 0 
391 1 23.1928 -21.6927 0 
393 1 24.322 -21.6824 0 
395 2 25.4466 -21.6709 0 
397 2 26.573 -21.6629 0 
399 2 27.6998 -21.6554 0 
401 2 -27.5037 -21.2208 0 
403 2 -26.3741 -21.1849 0 
402 2 -26.9617 -20.2313 0 
405 2 -25.2445 -21.1483 0 
404 2 -25.8321 -20.1949 0 
407 2 -24.1147 -21.111 0 
409 1 -22.986 -21.071 0 
411 1 -21.8555 -21.0322 0 
413 1 -20.7218 -20.991 0 
415 1 -19.5865 -20.9455 0 
417 1 -18.4527 -20.8992 0 
419 1 -17.323 -20.8548 0 
421 1 -16.1947 -20.8093 0 
423 1 -15.0665 -20.7616 0 
425 1 -13.9393 -20.7143 0 
427 1 -12.8132 -20.6699 0 
429 1 -11.6855 -20.6222 0 
431 1 -10.5566 -20.5742 0 
433 1 -9.42969 -20.5276 0 
435 1 -8.30554 -20.4823 0 
437 1 -7.18102 -20.4355 0 
439 1 -6.05564 -20.3887 0 
441 1 -4.93075 -20.3425 0 
344 1 -3.22702 -21.2647 0 
443 1 -3.80618 -20.2972 0 
346 1 -2.1026 -21.2203 0 
445 1 -2.68181 -20.2524 0 
348 1 -0.979739 -21.1772 0 
447 1 -1.55834 -20.2078 0 
350 1 0.141013 -21.1373 0 
449 1 -0.436233 -20.1645 0 
352 1 1.26163 -21.1006 0 
354 1 2.38278 -21.0658 0 
356 1 3.50561 -21.0335 0 
358 1 4.62931 -21.0034 0 
360 1 5.75193 -20.9753 0 
362 1 6.8747 -20.9494 0 
364 1 7.99759 -20.9231 0 
366 1 9.11947 -20.8984 0 
368 1 10.2402 -20.8753 0 
370 1 11.3605 -20.8528 0 
372 1 12.4817 -20.8303 0 
374 1 13.6047 -20.8106 0 
376 1 14.7268 -20.7951 0 
378 1 15.8484 -20.7854 0 
380 1 16.972 -20.7727 0 
382 1 18.0997 -20.7594 0 
384 1 19.2277 -20.7461 0 
386 1 20.357 -20.7339 0 
388 1 21.4857 -20.7248 0 
390 1 22.6141 -20.7144 0 
392 1 23.7424 -20.7046 0 
394 1 24.8696 -20.6904 0 
396 2 25.9969 -20.6804 0 
398 2 27.1238 -20.673 0 
400 2 28.251 -20.6661 0 
501 2 -27.5497 -19.2779 0 
503 2 -26.4202 -19.2417 0 
505 2 -25.2906 -19.2049 0 
406 2 -24.7023 -20.1579 0 
507 2 -24.1608 -19.1673 0 
408 1 -23.5715 -20.1183 0 
509 1 -23.0265 -19.1273 0 
410 1 -22.4392 -20.0793 0 
511 1 -21.8944 -19.0856 0 
412 1 -21.3073 -20.0392 0 
414 1 -20.1748 -19.9965 0 
513 1 -20.7623 -19.0445 0 
416 1 -19.0419 -19.9497 0 
418 1 -17.9092 -19.9022 0 
420 1 -16.7797 -19.8549 0 
422 1 -15.6518 -19.8064 0 
424 1 -14.5227 -19.7577 0 
426 1 -13.3927 -19.7102 0 
428 1 -12.2652 -19.6635 0 
430 1 -11.1384 -19.6163 0 
432 1 -10.0108 -19.5673 0 
434 1 -8.88306 -19.5199 0 
436 1 -7.75719 -19.4726 0 
438 1 -6.63264 -19.4246 0 
440 1 -5.50771 -19.3763 0 
442 1 -4.38296 -19.3304 0 
444 1 -3.25886 -19.2859 0 
446 1 -2.13578 -19.2396 0 
448 1 -1.01381 -19.1945 0 
450 1 0.107724 -19.153 0 
451 1 0.684745 -20.1253 0 
452 1 1.22929 -19.1144 0 
453 1 1.80557 -20.0886 0 
454 1 2.35302 -19.0799 0 
455 1 2.92817 -20.0557 0 
456 1 3.47632 -19.0469 0 
457 1 4.05131 -20.0249 0 
458 1 4.59842 -19.0161 0 
459 1 5.17409 -19.9954 0 
461 1 6.29611 -19.9693 0 
463 1 7.41803 -19.9439 0 
465 1 8.54128 -19.9178 0 
467 1 9.66348 -19.8936 0 
469 1 10.7835 -19.8706 0 
471 1 11.9048 -19.8479 0 
473 1 13.0296 -19.8283 0 
475 1 14.1549 -19.8102 0 
477 1 15.278 -19.7965 0 
479 1 16.3981 -19.7868 0 
481 1 17.5224 -19.7769 0 
483 1 18.649 -19.7643 0 
485 1 19.7768 -19.7513 0 
487 1 20.9055 -19.7413 0 
489 1 22.0345 -19.7331 0 
491 1 23.1625 -19.7247 0 
493 1 24.2909 -19.7127 0 
495 2 25.4205 -19.6978 0 
497 2 26.5477 -19.6905 0 
499 2 27.6751 -19.6838 0 
502 2 -27.0088 -18.2886 0 
504 2 -25.8793 -18.252 0 
506 2 -24.7497 -18.2147 0 
508 1 -23.6162 -18.1757 0 
510 1 -22.4841 -18.1343 0 
512 1 -21.3512 -18.0927 0 
514 1 -20.2202 -18.0476 0 
515 1 -19.6307 -18.9994 0 
516 1 -19.0894 -18.0016 0 
517 1 -18.4982 -18.9525 0 
518 1 -17.9579 -17.953 0 
519 1 -17.3664 -18.9026 0 
520 1 -16.8252 -17.9031 0 
521 1 -16.236 -18.8523 0 
522 1 -15.6916 -17.8527 0 
523 1 -15.1056 -18.8041 0 
525 1 -13.9754 -18.755 0 
527 1 -12.8462 -18.7047 0 
529 1 -11.7184 -18.6555 0 
531 1 -10.591 -18.6087 0 
533 1 -9.46304 -18.5597 0 
535 1 -8.33658 -18.5099 0 
537 1 -7.21046 -18.4604 0 
539 1 -6.0846 -18.4116 0 
541 1 -4.95903 -18.3636 0 
543 1 -3.83471 -18.3175 0 
545 1 -2.71325 -18.2706 0 
547 1 -1.59202 -18.2239 0 
549 1 -0.470156 -18.1806 0 
551 1 0.652127 -18.1406 0 
553 1 1.7761 -18.1055 0 
555 1 2.9005 -18.0708 0 
557 1 4.02409 -18.0376 0 
559 1 5.14622 -18.007 0 
460 1 5.7204 -18.9867 0 
561 1 6.26864 -17.9776 0 
462 1 6.84166 -18.9606 0 
563 1 7.3896 -17.9515 0 
464 1 7.96301 -18.9372 0 
565 1 8.5087 -17.9287 0 
466 1 9.08513 -18.9127 0 
567 1 9.63019 -17.9062 0 
468 1 10.207 -18.888 0 
569 1 10.7528 -17.8813 0 
470 1 11.3285 -18.8652 0 
472 1 12.4523 -18.845 0 
474 1 13.5773 -18.8268 0 
476 1 14.7039 -18.8118 0 
478 1 15.8291 -18.7968 0 
480 1 16.9507 -18.7898 0 
482 1 18.0721 -18.7809 0 
484 1 19.1964 -18.7706 0 
486 1 20.3266 -18.7593 0 
488 1 21.4569 -18.7507 0 
490 1 22.5855 -18.7405 0 
492 1 23.7124 -18.7319 0 
494 1 24.8409 -18.7184 0 
496 2 25.9714 -18.7078 0 
498 2 27.0991 -18.7012 0 
500 2 28.2271 -18.6951 0 
601 2 -27.5979 -17.3354 0 
603 2 -26.4686 -17.2992 0 
605 2 -25.3391 -17.2621 0 
607 2 -24.2094 -17.2244 0 
609 1 -23.0755 -17.1842 0 
611 1 -21.9412 -17.1427 0 
613 1 -20.8095 -17.0964 0 
615 1 -19.6787 -17.0496 0 
617 1 -18.5479 -17.0028 0 
619 1 -17.4159 -16.9546 0 
621 1 -16.2836 -16.9044 0 
524 1 -14.5606 -17.8016 0 
623 1 -15.151 -16.8504 0 
526 1 -13.4315 -17.749 0 
625 1 -14.0193 -16.7956 0 
528 1 -12.3017 -17.698 0 
627 1 -12.8869 -16.7426 0 
530 1 -11.1706 -17.65 0 
629 1 -11.7561 -16.693 0 
532 1 -10.0433 -17.5998 0 
534 1 -8.91746 -17.5486 0 
536 1 -7.79018 -17.4985 0 
538 1 -6.66277 -17.4473 0 
540 1 -5.53644 -17.3966 0 
542 1 -4.41233 -17.3484 0 
544 1 -3.29064 -17.299 0 
546 1 -2.16992 -17.2515 0 
548 1 -1.04803 -17.2065 0 
550 1 0.0736835 -17.164 0 
552 1 1.19644 -17.1265 0 
554 1 2.32016 -17.0929 0 
556 1 3.44505 -17.0611 0 
558 1 4.56912 -17.029 0 
560 1 5.69202 -17.0001 0 
562 1 6.81446 -16.9704 0 
564 1 7.93556 -16.9424 0 
566 1 9.05556 -16.9202 0 
568 1 10.1768 -16.8962 0 
571 1 11.8749 -17.86 0 
570 1 11.299 -16.8723 0 
573 1 12.9978 -17.8413 0 
572 1 12.4205 -16.8556 0 
575 1 14.1221 -17.8265 0 
574 1 13.5444 -16.8399 0 
577 1 15.248 -17.8115 0 
576 1 14.6695 -16.8259 0 
579 1 16.3747 -17.799 0 
578 1 15.7952 -16.8125 0 
581 1 17.4983 -17.7941 0 
580 1 16.9211 -16.8041 0 
583 1 18.6217 -17.7865 0 
582 1 18.0462 -16.7998 0 
585 1 19.7479 -17.7789 0 
584 1 19.1739 -16.7957 0 
587 1 20.8764 -17.7678 0 
586 1 20.3018 -16.7862 0 
589 1 22.0053 -17.757 0 
588 1 21.4296 -16.7734 0 
591 1 23.1341 -17.7463 0 
590 1 22.5584 -16.7619 0 
593 1 24.2624 -17.7364 0 
592 1 23.6877 -16.7525 0 
595 2 25.3948 -17.725 0 
594 1 24.8167 -16.7435 0 
596 2 25.9465 -16.7357 0 
597 2 26.5229 -17.7186 0 
598 2 27.0751 -16.7299 0 
599 2 27.6512 -17.7126 0 
600 2 28.2039 -16.7246 0 
602 2 -27.0583 -16.3463 0 
604 2 -25.929 -16.3096 0 
606 2 -24.7995 -16.2721 0 
608 1 -23.6667 -16.233 0 
610 1 -22.5334 -16.1921 0 
612 1 -21.4018 -16.1465 0 
614 1 -20.27 -16.0995 0 
616 1 -19.1375 -16.0523 0 
618 1 -18.006 -16.0051 0 
620 1 -16.8745 -15.9548 0 
622 1 -15.7419 -15.9016 0 
624 1 -14.609 -15.8444 0 
626 1 -13.4767 -15.7899 0 
628 1 -12.3463 -15.7374 0 
630 1 -11.2172 -15.6849 0 
631 1 -10.628 -16.6414 0 
632 1 -10.089 -15.6318 0 
633 1 -9.5005 -16.5891 0 
634 1 -8.96039 -15.5793 0 
635 1 -8.37265 -16.5381 0 
636 1 -7.83301 -15.524 0 
637 1 -7.24533 -16.4855 0 
639 1 -6.11881 -16.432 0 
641 1 -4.99398 -16.3806 0 
643 1 -3.87118 -16.3296 0 
645 1 -2.74915 -16.2793 0 
647 1 -1.62739 -16.2317 0 
649 1 -0.506858 -16.1853 0 
651 1 0.615114 -16.1462 0 
653 1 1.73833 -16.1125 0 
655 1 2.86159 -16.0818 0 
657 1 3.9853 -16.0502 0 
659 1 5.11044 -16.0194 0 
661 1 6.23319 -15.9909 0 
663 1 7.35551 -15.9634 0 
665 1 8.47815 -15.9356 0 
667 1 9.59952 -15.9104 0 
669 1 10.7221 -15.8863 0 
671 1 11.8452 -15.8658 0 
673 1 12.9681 -15.8525 0 
675 1 14.093 -15.8399 0 
677 1 15.2176 -15.8268 0 
679 1 16.3431 -15.8164 0 
681 1 17.4694 -15.8085 0 
683 1 18.5975 -15.8064 0 
685 1 19.7257 -15.8045 0 
687 1 20.8549 -15.7929 0 
689 1 21.9846 -15.779 0 
691 1 23.113 -15.7693 0 
693 1 24.2415 -15.7617 0 
695 2 25.3699 -15.7527 0 
697 2 26.4989 -15.7471 0 
699 2 27.6281 -15.742 0 
701 2 -27.6483 -15.3934 0 
703 2 -26.5193 -15.357 0 
705 2 -25.3901 -15.3199 0 
707 2 -24.2607 -15.282 0 
709 1 -23.126 -15.2402 0 
711 1 -21.994 -15.1958 0 
713 1 -20.8624 -15.1505 0 
715 1 -19.7287 -15.1046 0 
717 1 -18.5959 -15.056 0 
719 1 -17.4644 -15.0051 0 
721 1 -16.333 -14.9525 0 
723 1 -15.2015 -14.8958 0 
725 1 -14.0692 -14.84 0 
727 1 -12.9374 -14.7854 0 
729 1 -11.8078 -14.7312 0 
731 1 -10.6789 -14.6758 0 
733 1 -9.55078 -14.6211 0 
735 1 -8.4244 -14.5644 0 
638 1 -6.70673 -15.469 0 
737 1 -7.29747 -14.5072 0 
640 1 -5.58137 -15.415 0 
739 1 -6.17134 -14.451 0 
642 1 -4.45815 -15.3629 0 
741 1 -5.04625 -14.3966 0 
644 1 -3.33439 -15.3108 0 
743 1 -3.92288 -14.3434 0 
646 1 -2.21234 -15.2592 0 
648 1 -1.09177 -15.2107 0 
650 1 0.0311751 -15.1695 0 
652 1 1.15426 -15.1331 0 
654 1 2.27617 -15.0993 0 
656 1 3.39786 -15.0685 0 
658 1 4.52283 -15.0389 0 
660 1 5.64921 -15.0064 0 
662 1 6.77257 -14.9798 0 
664 1 7.89403 -14.9552 0 
666 1 9.01744 -14.9287 0 
668 1 10.1412 -14.9056 0 
670 1 11.2664 -14.8825 0 
672 1 12.3916 -14.8626 0 
674 1 13.517 -14.8503 0 
676 1 14.6417 -14.839 0 
678 1 15.7673 -14.8305 0 
680 1 16.8928 -14.8201 0 
682 1 18.0216 -14.814 0 
684 1 19.1484 -14.8132 0 
686 1 20.2734 -14.8103 0 
688 1 21.4023 -14.8005 0 
690 1 22.5334 -14.7893 0 
692 1 23.6636 -14.781 0 
694 1 24.7926 -14.7704 0 
696 2 25.9226 -14.7642 0 
698 2 27.0521 -14.7592 0 
700 2 28.1818 -14.7547 0 
702 2 -27.11 -14.4044 0 
801 2 -27.7009 -13.4516 0 
704 2 -25.9811 -14.3676 0 
803 2 -26.5724 -13.4152 0 
706 2 -24.852 -14.3301 0 
805 2 -25.4437 -13.3781 0 
708 1 -23.7213 -14.2903 0 
807 2 -24.3146 -13.3401 0 
710 1 -22.5889 -14.246 0 
809 1 -23.1831 -13.2972 0 
712 1 -21.456 -14.2012 0 
714 1 -20.3221 -14.1575 0 
716 1 -19.1887 -14.11 0 
718 1 -18.0566 -14.0585 0 
720 1 -16.9238 -14.0039 0 
722 1 -15.7926 -13.949 0 
724 1 -14.6602 -13.8929 0 
726 1 -13.5277 -13.8376 0 
728 1 -12.3967 -13.7794 0 
730 1 -11.2678 -13.7213 0 
732 1 -10.1392 -13.6642 0 
734 1 -9.01107 -13.6069 0 
736 1 -7.88472 -13.5476 0 
738 1 -6.7579 -13.4902 0 
740 1 -5.63165 -13.4341 0 
742 1 -4.50915 -13.3782 0 
744 1 -3.38846 -13.3208 0 
745 1 -2.80184 -14.2892 0 
746 1 -2.26645 -13.2682 0 
747 1 -1.67924 -14.2388 0 
748 1 -1.14265 -13.2208 0 
749 1 -0.554445 -14.1949 0 
751 1 0.569661 -14.1532 0 
753 1 1.69231 -14.1174 0 
755 1 2.81465 -14.0852 0 
757 1 3.93716 -14.0558 0 
759 1 5.06132 -14.0266 0 
761 1 6.18842 -13.9963 0 
763 1 7.31212 -13.9695 0 
765 1 8.43482 -13.9476 0 
767 1 9.55665 -13.9241 0 
769 1 10.6795 -13.9049 0 
771 1 11.8062 -13.8818 0 
773 1 12.9353 -13.8634 0 
775 1 14.0625 -13.8494 0 
777 1 15.1901 -13.841 0 
779 1 16.3171 -13.832 0 
781 1 17.4438 -13.8257 0 
783 1 18.5717 -13.8205 0 
785 1 19.6982 -13.8191 0 
787 1 20.8257 -13.8161 0 
789 1 21.9558 -13.8102 0 
791 1 23.085 -13.8006 0 
793 1 24.2155 -13.7905 0 
795 2 25.3462 -13.7811 0 
797 2 26.4761 -13.7764 0 
799 2 27.6062 -13.772 0 
802 2 -27.164 -12.4626 0 
804 2 -26.0357 -12.4259 0 
806 2 -24.9071 -12.3884 0 
808 1 -23.776 -12.3474 0 
810 1 -22.6457 -12.3059 0 
811 1 -22.0514 -13.254 0 
812 1 -21.514 -12.2632 0 
813 1 -20.9176 -13.21 0 
814 1 -20.38 -12.2178 0 
815 1 -19.7841 -13.1641 0 
816 1 -19.2464 -12.1686 0 
817 1 -18.6518 -13.1135 0 
818 1 -18.1123 -12.1166 0 
819 1 -17.5186 -13.0604 0 
821 1 -16.3836 -13.0041 0 
823 1 -15.2506 -12.9481 0 
825 1 -14.1186 -12.8907 0 
827 1 -12.9891 -12.8309 0 
829 1 -11.8596 -12.7694 0 
831 1 -10.7299 -12.7096 0 
833 1 -9.60075 -12.6516 0 
835 1 -8.47247 -12.5918 0 
837 1 -7.34428 -12.5323 0 
839 1 -6.21839 -12.474 0 
841 1 -5.09438 -12.4158 0 
843 1 -3.97406 -12.3547 0 
845 1 -2.85178 -12.2984 0 
847 1 -1.72933 -12.2467 0 
750 1 -0.0189578 -13.1764 0 
849 1 -0.607992 -12.1998 0 
851 1 0.516294 -12.1629 0 
752 1 1.10686 -13.1388 0 
853 1 1.6397 -12.1253 0 
754 1 2.23025 -13.1043 0 
855 1 2.76348 -12.0911 0 
756 1 3.35285 -13.0711 0 
758 1 4.47615 -13.0422 0 
760 1 5.60052 -13.0168 0 
762 1 6.7265 -12.9872 0 
764 1 7.85266 -12.964 0 
766 1 8.97565 -12.9396 0 
768 1 10.0978 -12.9199 0 
770 1 11.2198 -12.902 0 
772 1 12.3471 -12.8834 0 
774 1 13.4749 -12.8641 0 
776 1 14.6023 -12.852 0 
778 1 15.732 -12.8431 0 
780 1 16.8634 -12.836 0 
782 1 17.9929 -12.8332 0 
784 1 19.1222 -12.8277 0 
786 1 20.2492 -12.825 0 
788 1 21.3795 -12.8249 0 
790 1 22.5092 -12.8188 0 
792 1 23.6383 -12.8079 0 
794 1 24.7679 -12.7988 0 
796 2 25.9 -12.7934 0 
798 2 27.0306 -12.7893 0 
800 2 28.1612 -12.7854 0 
901 2 -27.7557 -11.5099 0 
903 2 -26.6279 -11.4735 0 
905 2 -25.4997 -11.4364 0 
907 2 -24.3713 -11.3985 0 
909 1 -23.241 -11.3569 0 
911 1 -22.109 -11.3156 0 
913 1 -20.9752 -11.271 0 
915 1 -19.8427 -11.2236 0 
917 1 -18.7104 -11.1728 0 
820 1 -16.978 -12.0621 0 
919 1 -17.577 -11.1194 0 
822 1 -15.8447 -12.0038 0 
921 1 -16.4441 -11.0605 0 
824 1 -14.7127 -11.9446 0 
923 1 -15.311 -11.0003 0 
826 1 -13.5832 -11.8837 0 
925 1 -14.1789 -10.9385 0 
828 1 -12.4539 -11.8222 0 
927 1 -13.0481 -10.8764 0 
830 1 -11.3232 -11.7598 0 
832 1 -10.1918 -11.6989 0 
834 1 -9.06217 -11.6391 0 
836 1 -7.93438 -11.5767 0 
838 1 -6.806 -11.5156 0 
840 1 -5.68048 -11.4537 0 
842 1 -4.55879 -11.3883 0 
844 1 -3.43575 -11.3298 0 
846 1 -2.31332 -11.2747 0 
848 1 -1.19113 -11.2224 0 
850 1 -0.0689993 -11.1797 0 
852 1 1.05159 -11.1422 0 
854 1 2.17556 -11.1096 0 
857 1 3.88833 -12.0572 0 
856 1 3.30111 -11.0758 0 
859 1 5.01167 -12.0292 0 
858 1 4.42716 -11.0419 0 
861 1 6.13485 -12.0061 0 
860 1 5.54946 -11.016 0 
863 1 7.26176 -11.9809 0 
862 1 6.6706 -10.9956 0 
865 1 8.38783 -11.9558 0 
864 1 7.79625 -10.9715 0 
867 1 9.51425 -11.9346 0 
869 1 10.6396 -11.9143 0 
871 1 11.7658 -11.8996 0 
873 1 12.8919 -11.8828 0 
875 1 14.0209 -11.8671 0 
877 1 15.1498 -11.8579 0 
879 1 16.2807 -11.8493 0 
881 1 17.4121 -11.8444 0 
883 1 18.5435 -11.8416 0 
885 1 19.6747 -11.8351 0 
887 1 20.8032 -11.8334 0 
889 1 21.9313 -11.8328 0 
891 1 23.0614 -11.8276 0 
893 1 24.193 -11.8163 0 
895 2 25.3239 -11.8103 0 
897 2 26.4549 -11.8064 0 
899 2 27.586 -11.8028 0 
902 2 -27.2202 -10.5209 0 
904 2 -26.0925 -10.4842 0 
906 2 -24.9646 -10.4468 0 
908 1 -23.8354 -10.4073 0 
910 1 -22.7042 -10.3671 0 
912 1 -21.5719 -10.324 0 
914 1 -20.44 -10.277 0 
916 1 -19.3097 -10.228 0 
918 1 -18.1772 -10.1763 0 
920 1 -17.0444 -10.1181 0 
922 1 -15.9116 -10.0574 0 
924 1 -14.7788 -9.99714 0 
926 1 -13.6459 -9.93398 0 
928 1 -12.5126 -9.86991 0 
929 1 -11.9174 -10.8142 0 
930 1 -11.3794 -9.80657 0 
931 1 -10.7853 -10.7517 0 
932 1 -10.2459 -9.74157 0 
933 1 -9.65329 -10.6887 0 
935 1 -8.52247 -10.6245 0 
937 1 -7.392 -10.5599 0 
939 1 -6.26579 -10.4924 0 
941 1 -5.14137 -10.4259 0 
943 1 -4.01675 -10.3633 0 
945 1 -2.89359 -10.3034 0 
947 1 -1.77177 -10.246 0 
949 1 -0.64955 -10.1983 0 
951 1 0.472203 -10.1564 0 
953 1 1.59326 -10.1234 0 
955 1 2.7151 -10.09 0 
957 1 3.84288 -10.0587 0 
959 1 4.97001 -10.0273 0 
961 1 6.09354 -10.0035 0 
963 1 7.21528 -9.98501 0 
965 1 8.34086 -9.96343 0 
866 1 8.92367 -10.9487 0 
967 1 9.4698 -9.94145 0 
868 1 10.0511 -10.9287 0 
969 1 10.598 -9.92573 0 
870 1 11.18 -10.9126 0 
971 1 11.7274 -9.91207 0 
872 1 12.3085 -10.898 0 
973 1 12.8552 -9.90137 0 
874 1 13.4394 -10.8853 0 
975 1 13.9892 -9.89108 0 
876 1 14.5723 -10.8726 0 
977 1 15.1248 -9.87911 0 
878 1 15.701 -10.8649 0 
979 1 16.2552 -9.87144 0 
880 1 16.8318 -10.8564 0 
981 1 17.3873 -9.86523 0 
882 1 17.9641 -10.8536 0 
983 1 18.5183 -9.86126 0 
884 1 19.0972 -10.8491 0 
985 1 19.6504 -9.85922 0 
886 1 20.2298 -10.8455 0 
987 1 20.781 -9.85661 0 
888 1 21.3584 -10.8424 0 
890 1 22.4861 -10.8415 0 
989 1 21.9111 -9.85335 0 
892 1 23.6149 -10.8363 0 
991 1 23.0419 -9.85349 0 
894 1 24.7469 -10.831 0 
993 1 24.1712 -9.84644 0 
896 2 25.8793 -10.8234 0 
995 2 25.3037 -9.84035 0 
898 2 27.0108 -10.8201 0 
997 2 26.4357 -9.83726 0 
900 2 28.1423 -10.817 0 
999 2 27.5677 -9.8344 0 
1001 2 -27.8125 -9.56805 0 
1003 2 -26.6854 -9.5318 0 
1005 2 -25.5581 -9.49477 0 
1007 2 -24.4305 -9.45693 0 
1009 1 -23.3003 -9.41757 0 
1011 1 -22.1698 -9.37516 0 
1013 1 -21.0392 -9.33084 0 
1015 1 -19.9089 -9.28228 0 
1017 1 -18.7779 -9.23201 0 
1019 1 -17.6467 -9.17667 0 
1021 1 -16.5147 -9.1169 0 
1023 1 -15.3808 -9.05709 0 
1025 1 -14.247 -8.99424 0 
1027 1 -13.1127 -8.9294 0 
1029 1 -11.9779 -8.86375 0 
1031 1 -10.8433 -8.79692 0 
934 1 -9.1131 -9.6756 0 
1033 1 -9.71029 -8.72907 0 
936 1 -7.98301 -9.608 0 
1035 1 -8.58051 -8.65934 0 
938 1 -6.85537 -9.53897 0 
1037 1 -7.45139 -8.59014 0 
940 1 -5.72857 -9.47089 0 
1039 1 -6.32365 -8.51902 0 
942 1 -4.60332 -9.4033 0 
944 1 -3.47915 -9.33454 0 
946 1 -2.35752 -9.27182 0 
948 1 -1.23454 -9.21932 0 
950 1 -0.111252 -9.17659 0 
952 1 1.01332 -9.13803 0 
954 1 2.13351 -9.10291 0 
956 1 3.25584 -9.07398 0 
958 1 4.38154 -9.04116 0 
960 1 5.50986 -9.01607 0 
962 1 6.63564 -8.99222 0 
964 1 7.75909 -8.9754 0 
966 1 8.88599 -8.95864 0 
968 1 10.0173 -8.93744 0 
970 1 11.1484 -8.92664 0 
972 1 12.2794 -8.91253 0 
974 1 13.409 -8.90657 0 
976 1 14.5423 -8.89737 0 
978 1 15.6766 -8.8869 0 
980 1 16.8091 -8.87953 0 
982 1 17.9425 -8.87459 0 
984 1 19.0731 -8.87168 0 
986 1 20.2062 -8.87193 0 
988 1 21.3372 -8.86742 0 
990 1 22.4688 -8.86607 0 
992 1 23.5971 -8.86425 0 
994 1 24.7308 -8.86039 0 
996 2 25.8608 -8.85435 0 
998 2 26.9933 -8.85174 0 
1000 2 28.1257 -8.84931 0 
1002 2 -27.2783 -8.57905 0 
1101 2 -27.8711 -7.62598 0 
1004 2 -26.1516 -8.54247 0 
1103 2 -26.7449 -7.58983 0 
1006 2 -25.0246 -8.50509 0 
1105 2 -25.6186 -7.5529 0 
1008 1 -23.8948 -8.46748 0 
1107 2 -24.492 -7.51516 0 
1010 1 -22.7648 -8.42524 0 
1012 1 -21.6354 -8.38211 0 
1014 1 -20.5071 -8.33649 0 
1016 1 -19.379 -8.28666 0 
1018 1 -18.2497 -8.23374 0 
1020 1 -17.1182 -8.17702 0 
1022 1 -15.9844 -8.11844 0 
1024 1 -14.8484 -8.05535 0 
1026 1 -13.7132 -7.98998 0 
1028 1 -12.5796 -7.92394 0 
1030 1 -11.447 -7.85626 0 
1032 1 -10.3138 -7.78529 0 
1034 1 -9.18199 -7.71357 0 
1036 1 -8.05076 -7.64248 0 
1038 1 -6.92055 -7.56692 0 
1041 1 -5.19721 -8.44576 0 
1040 1 -5.79348 -7.4911 0 
1043 1 -4.07355 -8.37429 0 
1042 1 -4.66772 -7.41522 0 
1045 1 -2.94936 -8.30669 0 
1044 1 -3.54314 -7.34422 0 
1047 1 -1.82612 -8.24525 0 
1049 1 -0.703461 -8.19479 0 
1051 1 0.422688 -8.15658 0 
1053 1 1.54928 -8.11663 0 
1055 1 2.67249 -8.08571 0 
1057 1 3.79747 -8.05655 0 
1059 1 4.92504 -8.02872 0 
1061 1 6.05287 -8.00508 0 
1063 1 7.17864 -7.9819 0 
1065 1 8.30448 -7.96987 0 
1067 1 9.43301 -7.95343 0 
1069 1 10.5654 -7.93846 0 
1071 1 11.697 -7.92669 0 
1073 1 12.8304 -7.91711 0 
1075 1 13.9626 -7.91212 0 
1077 1 15.0967 -7.90478 0 
1079 1 16.2287 -7.89581 0 
1081 1 17.3631 -7.89114 0 
1083 1 18.4945 -7.88551 0 
1085 1 19.627 -7.88593 0 
1087 1 20.7588 -7.88259 0 
1089 1 21.8926 -7.88081 0 
1091 1 23.0263 -7.87624 0 
1093 1 24.1548 -7.87706 0 
1095 2 25.2861 -7.87134 0 
1097 2 26.419 -7.86899 0 
1099 2 27.5519 -7.8668 0 
1102 2 -27.3381 -6.63684 0 
1104 2 -26.2124 -6.60035 0 
1106 2 -25.0865 -6.56307 0 
1108 1 -23.9604 -6.52545 0 
1109 1 -23.3635 -7.47625 0 
1110 1 -22.8344 -6.48316 0 
1111 1 -22.2346 -7.43262 0 
1112 1 -21.7056 -6.44019 0 
1113 1 -21.1059 -7.38871 0 
1114 1 -20.5783 -6.39464 0 
1115 1 -19.9786 -7.34099 0 
1116 1 -19.4521 -6.34523 0 
1117 1 -18.8505 -7.28932 0 
1119 1 -17.7199 -7.23604 0 
1121 1 -16.587 -7.17822 0 
1123 1 -15.4535 -7.11683 0 
1125 1 -14.3178 -7.05168 0 
1127 1 -13.1846 -6.98673 0 
1129 1 -12.0523 -6.91782 0 
1131 1 -10.9191 -6.84672 0 
1133 1 -9.78336 -6.77238 0 
1135 1 -8.64831 -6.69719 0 
1137 1 -7.5144 -6.61847 0 
1139 1 -6.38539 -6.5397 0 
1141 1 -5.25727 -6.46312 0 
1143 1 -4.13072 -6.38309 0 
1145 1 -3.00324 -6.30946 0 
1046 1 -2.41896 -7.27826 0 
1147 1 -1.88055 -6.24453 0 
1048 1 -1.29385 -7.21863 0 
1050 1 -0.169707 -7.17424 0 
1052 1 0.95617 -7.13782 0 
1054 1 2.08459 -7.09683 0 
1056 1 3.211 -7.0694 0 
1058 1 4.33902 -7.04294 0 
1060 1 5.47002 -7.0181 0 
1062 1 6.60005 -6.99326 0 
1064 1 7.72878 -6.97454 0 
1066 1 8.85384 -6.96521 0 
1068 1 9.98556 -6.95191 0 
1070 1 11.118 -6.94093 0 
1072 1 12.2511 -6.93049 0 
1074 1 13.3845 -6.9245 0 
1076 1 14.5177 -6.92084 0 
1078 1 15.6516 -6.91363 0 
1080 1 16.7854 -6.90727 0 
1082 1 17.9183 -6.90091 0 
1084 1 19.0503 -6.90003 0 
1086 1 20.1831 -6.89728 0 
1088 1 21.315 -6.89622 0 
1090 1 22.4469 -6.89363 0 
1092 1 23.5795 -6.88692 0 
1094 1 24.7133 -6.8898 0 
1096 2 25.8451 -6.88616 0 
1098 2 26.9784 -6.88422 0 
1100 2 28.1116 -6.88241 0 