ITEM: TIMESTEP
3900
ITEM: NUMBER OF ATOMS
2850
ITEM: BOX BOUNDS ff ff pp
-42.092 42.092
-42.092 42.092
-0.280613 0.280613
ITEM: ATOMS id type xu yu zu 
1 2 -27.3398 -28.9988 0 
3 2 -26.2107 -28.9642 0 
5 2 -25.0816 -28.9291 0 
7 2 -23.9525 -28.8936 0 
9 2 -22.8235 -28.8577 0 
11 2 -21.6944 -28.8213 0 
13 2 -20.5655 -28.7844 0 
15 2 -19.4366 -28.7472 0 
17 2 -18.3079 -28.7095 0 
19 2 -17.1793 -28.6715 0 
21 2 -16.0508 -28.6331 0 
23 2 -14.9226 -28.5944 0 
25 2 -13.7947 -28.5554 0 
27 2 -12.667 -28.5163 0 
29 2 -11.5396 -28.477 0 
31 2 -10.4126 -28.4376 0 
33 2 -9.28592 -28.3982 0 
35 2 -8.15967 -28.3589 0 
37 2 -7.03386 -28.3198 0 
39 2 -5.90848 -28.281 0 
2 2 -26.7941 -28.0086 0 
4 2 -25.6649 -27.9736 0 
6 2 -24.5357 -27.9381 0 
8 2 -23.4065 -27.902 0 
10 2 -22.2773 -27.8656 0 
12 2 -21.1481 -27.8286 0 
14 2 -20.019 -27.7912 0 
16 2 -18.89 -27.7533 0 
18 2 -17.7611 -27.715 0 
20 2 -16.6324 -27.6763 0 
22 2 -15.5039 -27.6373 0 
24 2 -14.3755 -27.5979 0 
26 2 -13.2475 -27.5582 0 
28 2 -12.1197 -27.5183 0 
30 2 -10.9923 -27.4783 0 
32 2 -9.86522 -27.4382 0 
34 2 -8.73856 -27.3981 0 
36 2 -7.61233 -27.3581 0 
38 2 -6.48656 -27.3184 0 
40 2 -5.36126 -27.2789 0 
41 2 -4.78357 -28.2426 0 
42 2 -4.23645 -27.24 0 
43 2 -3.65912 -28.2046 0 
44 2 -3.11213 -27.2015 0 
45 2 -2.53513 -28.1673 0 
46 2 -1.98828 -27.1638 0 
47 2 -1.41159 -28.1307 0 
48 2 -0.8649 -27.1269 0 
49 2 -0.288464 -28.095 0 
51 2 0.834263 -28.0602 0 
53 2 1.95663 -28.0264 0 
55 2 3.07869 -27.9937 0 
57 2 4.20048 -27.9622 0 
59 2 5.32207 -27.9319 0 
61 2 6.4435 -27.9029 0 
63 2 7.56483 -27.8752 0 
65 2 8.68613 -27.8488 0 
67 2 9.80743 -27.8237 0 
69 2 10.9288 -27.8 0 
71 2 12.0503 -27.7775 0 
73 2 13.1719 -27.7563 0 
75 2 14.2937 -27.7363 0 
77 2 15.4157 -27.7174 0 
79 2 16.538 -27.6997 0 
81 2 17.6605 -27.683 0 
83 2 18.7832 -27.6673 0 
85 2 19.9063 -27.6526 0 
87 2 21.0296 -27.6388 0 
89 2 22.1532 -27.6258 0 
91 2 23.2771 -27.6136 0 
93 2 24.4012 -27.6022 0 
95 2 25.5256 -27.5914 0 
97 2 26.6503 -27.5812 0 
99 2 27.7752 -27.5717 0 
101 2 -27.378 -27.0533 0 
103 2 -26.2487 -27.0183 0 
102 2 -26.833 -26.0633 0 
105 2 -25.1194 -26.9828 0 
104 2 -25.7037 -26.0278 0 
107 2 -23.9901 -26.9468 0 
106 2 -24.5742 -25.9918 0 
109 2 -22.8607 -26.9102 0 
108 1 -23.4446 -25.9551 0 
111 2 -21.7314 -26.8732 0 
113 2 -20.6021 -26.8357 0 
115 2 -19.4729 -26.7977 0 
117 2 -18.3437 -26.7591 0 
119 2 -17.2147 -26.7202 0 
121 2 -16.0858 -26.6808 0 
123 2 -14.9572 -26.641 0 
125 2 -13.8287 -26.6009 0 
127 2 -12.7006 -26.5605 0 
129 2 -11.5727 -26.5198 0 
131 2 -10.4452 -26.479 0 
133 2 -9.31813 -26.4382 0 
135 2 -8.19146 -26.3973 0 
137 2 -7.06526 -26.3566 0 
139 2 -5.93954 -26.3162 0 
141 2 -4.81433 -26.2762 0 
143 2 -3.68963 -26.2366 0 
145 2 -2.56545 -26.1977 0 
147 2 -1.44177 -26.1596 0 
50 2 0.258046 -27.0909 0 
149 2 -0.318563 -26.1224 0 
52 2 1.38059 -27.056 0 
151 2 0.804196 -26.0862 0 
54 2 2.50279 -27.0222 0 
153 2 1.92656 -26.0512 0 
56 2 3.62468 -26.9896 0 
155 2 3.04857 -26.0174 0 
58 2 4.74633 -26.9582 0 
157 2 4.1703 -25.9849 0 
60 2 5.86779 -26.9282 0 
159 2 5.2918 -25.9538 0 
62 2 6.98913 -26.8996 0 
64 2 8.11041 -26.8723 0 
66 2 9.23169 -26.8465 0 
68 2 10.353 -26.822 0 
70 2 11.4745 -26.7989 0 
72 2 12.596 -26.7771 0 
74 2 13.7178 -26.7566 0 
76 2 14.8398 -26.7373 0 
78 2 15.962 -26.7192 0 
80 2 17.0845 -26.7023 0 
82 2 18.2073 -26.6863 0 
84 2 19.3304 -26.6714 0 
86 2 20.4538 -26.6575 0 
88 2 21.5774 -26.6444 0 
90 2 22.7014 -26.6321 0 
92 2 23.8256 -26.6206 0 
94 2 24.9501 -26.6098 0 
96 2 26.0749 -26.5996 0 
98 2 27.2 -26.5901 0 
100 2 28.3253 -26.5811 0 
201 2 -27.4179 -25.1085 0 
203 2 -26.2885 -25.0731 0 
205 2 -25.159 -25.0372 0 
207 2 -24.0295 -25.0007 0 
209 1 -22.8994 -24.9629 0 
110 1 -22.3149 -25.9177 0 
211 1 -21.7697 -24.9244 0 
112 1 -21.1854 -25.8797 0 
213 1 -20.64 -24.886 0 
114 1 -20.0559 -25.8414 0 
215 1 -19.5103 -24.8468 0 
116 1 -18.9265 -25.8025 0 
217 1 -18.3808 -24.8071 0 
118 1 -17.7974 -25.7634 0 
120 1 -16.6684 -25.7235 0 
122 1 -15.5396 -25.6834 0 
124 1 -14.4112 -25.6427 0 
126 1 -13.2827 -25.6017 0 
128 1 -12.1548 -25.5607 0 
130 1 -11.0271 -25.519 0 
132 1 -9.89997 -25.4775 0 
134 1 -8.77322 -25.436 0 
136 1 -7.64697 -25.3947 0 
138 1 -6.52114 -25.3533 0 
140 1 -5.39582 -25.3122 0 
142 1 -4.27089 -25.2717 0 
144 1 -3.14664 -25.232 0 
146 1 -2.0229 -25.1927 0 
148 1 -0.899532 -25.1546 0 
150 1 0.22348 -25.1173 0 
152 1 1.34602 -25.0815 0 
154 1 2.46835 -25.0464 0 
156 1 3.59018 -25.0131 0 
158 1 4.71194 -24.9812 0 
160 1 5.83383 -24.9506 0 
161 2 6.41316 -25.9242 0 
162 1 6.95552 -24.9214 0 
163 2 7.53443 -25.896 0 
164 1 8.07728 -24.8943 0 
165 2 8.65568 -25.8693 0 
167 2 9.77697 -25.844 0 
166 1 9.19921 -24.8684 0 
169 2 10.8984 -25.8202 0 
168 1 10.321 -24.8437 0 
171 2 12.0199 -25.7978 0 
170 1 11.443 -24.8208 0 
173 2 13.1416 -25.7768 0 
175 2 14.2636 -25.7571 0 
177 2 15.3858 -25.7386 0 
179 2 16.5083 -25.7213 0 
181 2 17.6311 -25.7052 0 
183 2 18.7543 -25.6901 0 
185 2 19.8777 -25.6759 0 
187 2 21.0014 -25.6627 0 
189 2 22.1254 -25.6504 0 
191 2 23.2498 -25.6388 0 
193 2 24.3744 -25.628 0 
195 2 25.4993 -25.6179 0 
197 2 26.6245 -25.6084 0 
199 2 27.75 -25.5994 0 
202 2 -26.8739 -24.1187 0 
204 2 -25.7444 -24.0828 0 
206 2 -24.6148 -24.0464 0 
208 1 -23.4846 -24.0089 0 
210 1 -22.3544 -23.9699 0 
212 1 -21.2244 -23.9309 0 
214 1 -20.0947 -23.8918 0 
216 1 -18.9651 -23.8517 0 
219 1 -17.2517 -24.7668 0 
218 1 -17.8357 -23.8108 0 
221 1 -16.1226 -24.7263 0 
220 1 -16.7061 -23.77 0 
222 1 -15.5771 -23.7284 0 
223 1 -14.994 -24.6854 0 
224 1 -14.4485 -23.6869 0 
225 1 -13.8653 -24.6439 0 
227 1 -12.7373 -24.602 0 
229 1 -11.6096 -24.5601 0 
231 1 -10.482 -24.5176 0 
233 1 -9.35509 -24.4754 0 
235 1 -8.22858 -24.4332 0 
237 1 -7.10262 -24.391 0 
239 1 -5.97708 -24.3488 0 
241 1 -4.85193 -24.3075 0 
243 1 -3.72744 -24.2665 0 
245 1 -2.60362 -24.2262 0 
247 1 -1.48019 -24.1869 0 
249 1 -0.357154 -24.1488 0 
251 1 0.765627 -24.1118 0 
253 1 1.88819 -24.0762 0 
255 1 3.01045 -24.0413 0 
257 1 4.13235 -24.0087 0 
259 1 5.25433 -23.9775 0 
261 1 6.37633 -23.9473 0 
263 1 7.49847 -23.9193 0 
265 1 8.62051 -23.8929 0 
267 1 9.7426 -23.8672 0 
269 1 10.8651 -23.8437 0 
271 1 11.9877 -23.8215 0 
172 1 12.5651 -24.799 0 
273 1 13.1104 -23.8006 0 
174 1 13.6874 -24.7787 0 
275 1 14.2331 -23.7811 0 
176 1 14.8099 -24.7597 0 
277 1 15.3562 -23.7628 0 
178 1 15.9326 -24.742 0 
279 1 16.4794 -23.746 0 
180 1 17.0557 -24.7256 0 
281 1 17.603 -23.73 0 
182 1 18.1791 -24.7101 0 
283 1 18.7267 -23.7152 0 
184 1 19.3025 -24.6957 0 
285 1 19.8506 -23.7014 0 
186 1 20.4262 -24.682 0 
287 1 20.9748 -23.6886 0 
188 1 21.5502 -24.6696 0 
289 1 22.099 -23.6768 0 
190 1 22.6745 -24.6578 0 
291 1 23.2236 -23.6656 0 
192 1 23.7992 -24.6468 0 
293 1 24.3483 -23.6547 0 
194 1 24.924 -24.6363 0 
295 2 25.4729 -23.6443 0 
196 2 26.0488 -24.6264 0 
198 2 27.1745 -24.6176 0 
200 2 28.3003 -24.6093 0 
301 2 -27.4598 -23.1644 0 
303 2 -26.3303 -23.1287 0 
305 2 -25.2007 -23.0924 0 
307 2 -24.071 -23.0555 0 
309 1 -22.9404 -23.0164 0 
311 1 -21.81 -22.9767 0 
313 1 -20.6798 -22.9371 0 
315 1 -19.5501 -22.8969 0 
317 1 -18.4204 -22.8558 0 
319 1 -17.2906 -22.8145 0 
321 1 -16.1612 -22.7724 0 
323 1 -15.0322 -22.7302 0 
226 1 -13.3201 -23.6441 0 
325 1 -13.9037 -22.6874 0 
327 1 -12.7753 -22.6438 0 
228 1 -12.1922 -23.6014 0 
329 1 -11.6473 -22.6001 0 
230 1 -11.0648 -23.5588 0 
331 1 -10.5202 -22.5564 0 
232 1 -9.93766 -23.5155 0 
333 1 -9.39336 -22.5126 0 
234 1 -8.81098 -23.4724 0 
236 1 -7.68475 -23.4293 0 
238 1 -6.55896 -23.3863 0 
240 1 -5.43359 -23.3438 0 
242 1 -4.30886 -23.3019 0 
244 1 -3.18469 -23.2603 0 
246 1 -2.06102 -23.2198 0 
248 1 -0.937918 -23.1807 0 
250 1 0.184932 -23.1426 0 
252 1 1.30773 -23.1061 0 
254 1 2.43034 -23.0704 0 
256 1 3.55283 -23.0362 0 
258 1 4.67499 -23.0042 0 
260 1 5.797 -22.9734 0 
262 1 6.91942 -22.9445 0 
264 1 8.04174 -22.9171 0 
266 1 9.16388 -22.891 0 
268 1 10.2865 -22.8667 0 
270 1 11.4094 -22.8441 0 
272 1 12.5326 -22.8227 0 
274 1 13.6559 -22.8027 0 
276 1 14.7792 -22.7839 0 
278 1 15.9026 -22.7663 0 
280 1 17.0263 -22.7501 0 
282 1 18.1503 -22.7347 0 
284 1 19.2743 -22.7207 0 
286 1 20.3986 -22.7078 0 
288 1 21.523 -22.6954 0 
290 1 22.6477 -22.6842 0 
292 1 23.7726 -22.6734 0 
294 1 24.8977 -22.6627 0 
297 2 26.5987 -23.6355 0 
296 2 26.0228 -22.6533 0 
299 2 27.7248 -23.6273 0 
298 2 27.149 -22.6452 0 
300 2 28.2755 -22.6376 0 
302 2 -26.9167 -22.1747 0 
304 2 -25.7871 -22.1385 0 
306 2 -24.6574 -22.1018 0 
308 1 -23.527 -22.0634 0 
310 1 -22.3965 -22.0235 0 
312 1 -21.266 -21.9832 0 
314 1 -20.1358 -21.9427 0 
316 1 -19.0057 -21.9015 0 
318 1 -17.8757 -21.8598 0 
320 1 -16.7461 -21.8173 0 
322 1 -15.6167 -21.7744 0 
324 1 -14.4877 -21.7311 0 
326 1 -13.3593 -21.6872 0 
328 1 -12.2311 -21.643 0 
330 1 -11.1033 -21.598 0 
332 1 -9.97603 -21.5535 0 
334 1 -8.8493 -21.5088 0 
335 1 -8.26669 -22.4686 0 
336 1 -7.723 -21.4637 0 
337 1 -7.14054 -22.4245 0 
338 1 -6.59715 -21.4188 0 
339 1 -6.0151 -22.3808 0 
340 1 -5.47194 -21.3744 0 
341 1 -4.89036 -22.3379 0 
343 1 -3.76595 -22.2953 0 
345 1 -2.64179 -22.2535 0 
347 1 -1.51816 -22.2129 0 
349 1 -0.395169 -22.1738 0 
351 1 0.72783 -22.1361 0 
353 1 1.85025 -22.0997 0 
355 1 2.97261 -22.0644 0 
357 1 4.09501 -22.031 0 
359 1 5.21735 -21.9993 0 
361 1 6.3398 -21.9697 0 
363 1 7.46227 -21.9415 0 
365 1 8.58481 -21.9149 0 
367 1 9.70773 -21.8901 0 
369 1 10.8308 -21.8667 0 
371 1 11.954 -21.8449 0 
373 1 13.0774 -21.8244 0 
375 1 14.2011 -21.8052 0 
377 1 15.3251 -21.7869 0 
379 1 16.449 -21.7701 0 
381 1 17.5732 -21.7546 0 
383 1 18.6975 -21.7399 0 
385 1 19.8218 -21.7269 0 
387 1 20.9464 -21.7142 0 
389 1 22.0713 -21.7026 0 
391 1 23.1963 -21.6919 0 
393 1 24.3214 -21.6812 0 
395 2 25.4466 -21.6709 0 
397 2 26.573 -21.6629 0 
399 2 27.6998 -21.6554 0 
401 2 -27.5037 -21.2208 0 
403 2 -26.3741 -21.1849 0 
402 2 -26.9617 -20.2313 0 
405 2 -25.2445 -21.1483 0 
404 2 -25.8321 -20.1949 0 
407 2 -24.1147 -21.111 0 
409 1 -22.9838 -21.0709 0 
411 1 -21.853 -21.0302 0 
413 1 -20.7223 -20.9891 0 
415 1 -19.5919 -20.9476 0 
417 1 -18.4617 -20.9057 0 
419 1 -17.3318 -20.8628 0 
421 1 -16.2022 -20.8196 0 
423 1 -15.0728 -20.7757 0 
425 1 -13.9438 -20.7313 0 
427 1 -12.8152 -20.6865 0 
429 1 -11.6874 -20.641 0 
431 1 -10.5594 -20.5954 0 
433 1 -9.43217 -20.5496 0 
435 1 -8.30561 -20.5037 0 
437 1 -7.17945 -20.4578 0 
439 1 -6.05387 -20.4121 0 
342 1 -4.34731 -21.331 0 
441 1 -4.9288 -20.3672 0 
344 1 -3.22288 -21.2881 0 
443 1 -3.80442 -20.3233 0 
346 1 -2.09907 -21.2461 0 
445 1 -2.68048 -20.2798 0 
348 1 -0.975811 -21.2054 0 
447 1 -1.55693 -20.2377 0 
350 1 0.147126 -21.1666 0 
352 1 1.26994 -21.1288 0 
354 1 2.39236 -21.0928 0 
356 1 3.51478 -21.0583 0 
358 1 4.6373 -21.0256 0 
360 1 5.76008 -20.9949 0 
362 1 6.88272 -20.966 0 
364 1 8.00557 -20.9388 0 
366 1 9.12861 -20.9134 0 
368 1 10.2519 -20.8893 0 
370 1 11.3754 -20.8669 0 
372 1 12.4989 -20.8461 0 
374 1 13.6228 -20.8263 0 
376 1 14.747 -20.8079 0 
378 1 15.8713 -20.7902 0 
380 1 16.9957 -20.7744 0 
382 1 18.1203 -20.7595 0 
384 1 19.245 -20.7457 0 
386 1 20.3698 -20.7332 0 
388 1 21.4949 -20.7212 0 
390 1 22.6202 -20.7102 0 
392 1 23.7454 -20.6999 0 
394 1 24.871 -20.6892 0 
396 2 25.9969 -20.6804 0 
398 2 27.1238 -20.673 0 
400 2 28.251 -20.6661 0 
501 2 -27.5497 -19.2779 0 
503 2 -26.4202 -19.2417 0 
505 2 -25.2906 -19.2049 0 
406 2 -24.7023 -20.1579 0 
507 2 -24.1608 -19.1673 0 
408 1 -23.5715 -20.1188 0 
509 1 -23.0294 -19.1264 0 
410 1 -22.4406 -20.0779 0 
511 1 -21.8983 -19.0847 0 
412 1 -21.3099 -20.0365 0 
513 1 -20.7674 -19.0424 0 
414 1 -20.1792 -19.9946 0 
416 1 -19.0487 -19.9522 0 
418 1 -17.9186 -19.9091 0 
420 1 -16.7884 -19.8654 0 
422 1 -15.6587 -19.8212 0 
424 1 -14.5293 -19.7764 0 
426 1 -13.4002 -19.731 0 
428 1 -12.2717 -19.6846 0 
430 1 -11.1436 -19.6385 0 
432 1 -10.0159 -19.5917 0 
434 1 -8.88888 -19.5447 0 
436 1 -7.76238 -19.4979 0 
438 1 -6.63653 -19.4509 0 
440 1 -5.51116 -19.4047 0 
442 1 -4.38627 -19.359 0 
444 1 -3.26213 -19.3143 0 
446 1 -2.13846 -19.2707 0 
448 1 -1.01489 -19.2286 0 
449 1 -0.433762 -20.1972 0 
450 1 0.108303 -19.1884 0 
451 1 0.689033 -20.1585 0 
452 1 1.23104 -19.1499 0 
453 1 1.81172 -20.1212 0 
454 1 2.35356 -19.1134 0 
455 1 2.93421 -20.0858 0 
456 1 3.47613 -19.0786 0 
457 1 4.05677 -20.052 0 
459 1 5.1796 -20.0205 0 
461 1 6.30263 -19.9905 0 
463 1 7.4257 -19.9626 0 
465 1 8.54901 -19.9364 0 
467 1 9.67255 -19.9119 0 
469 1 10.7962 -19.889 0 
471 1 11.9201 -19.8676 0 
473 1 13.0442 -19.8475 0 
475 1 14.1685 -19.8287 0 
477 1 15.293 -19.8107 0 
479 1 16.4177 -19.794 0 
481 1 17.5424 -19.779 0 
483 1 18.6674 -19.7648 0 
485 1 19.7927 -19.7519 0 
487 1 20.918 -19.74 0 
489 1 22.0436 -19.7286 0 
491 1 23.1692 -19.7181 0 
493 1 24.2948 -19.7078 0 
495 2 25.4205 -19.6978 0 
497 2 26.5477 -19.6905 0 
499 2 27.6751 -19.6838 0 
502 2 -27.0088 -18.2886 0 
504 2 -25.8793 -18.252 0 
506 2 -24.7497 -18.2147 0 
508 1 -23.6188 -18.1752 0 
510 1 -22.4877 -18.1334 0 
512 1 -21.3567 -18.091 0 
514 1 -20.2255 -18.048 0 
515 1 -19.6366 -18.9997 0 
516 1 -19.0946 -18.0043 0 
517 1 -18.5061 -18.9562 0 
518 1 -17.9636 -17.9602 0 
519 1 -17.3756 -18.9124 0 
520 1 -16.8331 -17.915 0 
521 1 -16.2454 -18.8676 0 
523 1 -15.1156 -18.8224 0 
525 1 -13.9862 -18.7765 0 
527 1 -12.8573 -18.7294 0 
529 1 -11.7285 -18.6823 0 
531 1 -10.6004 -18.6349 0 
533 1 -9.47287 -18.5869 0 
535 1 -8.34588 -18.5388 0 
537 1 -7.21968 -18.4907 0 
539 1 -6.0939 -18.4431 0 
541 1 -4.96881 -18.3959 0 
543 1 -3.84432 -18.3496 0 
545 1 -2.72034 -18.3046 0 
547 1 -1.59668 -18.2612 0 
549 1 -0.473284 -18.219 0 
551 1 0.649635 -18.179 0 
553 1 1.77242 -18.1412 0 
555 1 2.89518 -18.1053 0 
557 1 4.01818 -18.0714 0 
458 1 4.59888 -19.0459 0 
559 1 5.14121 -18.0399 0 
460 1 5.72184 -19.0153 0 
561 1 6.26453 -18.0102 0 
462 1 6.84509 -18.9864 0 
563 1 7.38824 -17.9828 0 
464 1 7.9688 -18.9596 0 
565 1 8.51241 -17.9572 0 
466 1 9.0929 -18.9346 0 
567 1 9.63652 -17.933 0 
468 1 10.2169 -18.9108 0 
569 1 10.7609 -17.9103 0 
470 1 11.3409 -18.8889 0 
472 1 12.4651 -18.8684 0 
474 1 13.5895 -18.8492 0 
476 1 14.7143 -18.8312 0 
478 1 15.8391 -18.814 0 
480 1 16.9643 -18.7984 0 
482 1 18.0897 -18.7838 0 
484 1 19.2153 -18.7707 0 
486 1 20.3409 -18.7585 0 
488 1 21.4667 -18.7471 0 
490 1 22.5926 -18.7363 0 
492 1 23.7186 -18.7263 0 
494 1 24.8448 -18.7163 0 
496 2 25.9714 -18.7078 0 
498 2 27.0991 -18.7012 0 
500 2 28.2271 -18.6951 0 
601 2 -27.5979 -17.3354 0 
603 2 -26.4686 -17.2992 0 
605 2 -25.3391 -17.2621 0 
607 2 -24.2094 -17.2244 0 
609 1 -23.078 -17.1826 0 
611 1 -21.9467 -17.1402 0 
613 1 -20.8154 -17.097 0 
615 1 -19.6841 -17.053 0 
617 1 -18.5531 -17.0087 0 
619 1 -17.4222 -16.9633 0 
522 1 -15.7027 -17.8692 0 
621 1 -16.2914 -16.9172 0 
524 1 -14.5729 -17.8227 0 
623 1 -15.1608 -16.87 0 
526 1 -13.4436 -17.7753 0 
625 1 -14.0309 -16.8219 0 
528 1 -12.3143 -17.7274 0 
627 1 -12.9014 -16.7737 0 
530 1 -11.1855 -17.6791 0 
532 1 -10.0575 -17.6302 0 
534 1 -8.92997 -17.5812 0 
536 1 -7.80328 -17.5316 0 
538 1 -6.67702 -17.4827 0 
540 1 -5.55147 -17.4339 0 
542 1 -4.42672 -17.386 0 
544 1 -3.30235 -17.3394 0 
546 1 -2.1788 -17.2943 0 
548 1 -1.05551 -17.2506 0 
550 1 0.0679141 -17.2086 0 
552 1 1.19101 -17.1692 0 
554 1 2.31396 -17.1321 0 
556 1 3.437 -17.0972 0 
558 1 4.56038 -17.0643 0 
560 1 5.68392 -17.0341 0 
562 1 6.80755 -17.0057 0 
564 1 7.93148 -16.9794 0 
566 1 9.05559 -16.9548 0 
568 1 10.1802 -16.9318 0 
571 1 11.8855 -17.8892 0 
570 1 11.3052 -16.9101 0 
573 1 13.0103 -17.8695 0 
572 1 12.4305 -16.8899 0 
575 1 14.1354 -17.8514 0 
574 1 13.5558 -16.8713 0 
577 1 15.2604 -17.8339 0 
576 1 14.6813 -16.8537 0 
579 1 16.3859 -17.8179 0 
578 1 15.8073 -16.8375 0 
581 1 17.5117 -17.8032 0 
580 1 16.9333 -16.8225 0 
583 1 18.6376 -17.7896 0 
582 1 18.0593 -16.8085 0 
585 1 19.7636 -17.7771 0 
584 1 19.1855 -16.7958 0 
587 1 20.8897 -17.7654 0 
586 1 20.3119 -16.7839 0 
589 1 22.0159 -17.7545 0 
588 1 21.4387 -16.7729 0 
591 1 23.1422 -17.7444 0 
590 1 22.5654 -16.7624 0 
593 1 24.2684 -17.7346 0 
592 1 23.692 -16.7528 0 
595 2 25.3948 -17.725 0 
594 1 24.819 -16.7434 0 
596 2 25.9465 -16.7357 0 
597 2 26.5229 -17.7186 0 
598 2 27.0751 -16.7299 0 
599 2 27.6512 -17.7126 0 
600 2 28.2039 -16.7246 0 
602 2 -27.0583 -16.3463 0 
604 2 -25.929 -16.3096 0 
606 2 -24.7995 -16.2721 0 
608 1 -23.6688 -16.2321 0 
610 1 -22.5376 -16.1898 0 
612 1 -21.4062 -16.1467 0 
614 1 -20.2748 -16.1027 0 
616 1 -19.1435 -16.058 0 
618 1 -18.0122 -16.0125 0 
620 1 -16.881 -15.966 0 
622 1 -15.75 -15.9188 0 
624 1 -14.6195 -15.8701 0 
626 1 -13.489 -15.821 0 
628 1 -12.3593 -15.7713 0 
629 1 -11.7719 -16.7246 0 
630 1 -11.2301 -15.7207 0 
631 1 -10.6431 -16.6746 0 
632 1 -10.1011 -15.6695 0 
633 1 -9.51507 -16.6248 0 
634 1 -8.97344 -15.6174 0 
635 1 -8.38792 -16.5738 0 
637 1 -7.2613 -16.5234 0 
639 1 -6.1353 -16.4733 0 
641 1 -5.01006 -16.4236 0 
643 1 -3.88549 -16.3756 0 
645 1 -2.76135 -16.3279 0 
647 1 -1.63788 -16.2825 0 
649 1 -0.514668 -16.2391 0 
651 1 0.608638 -16.1978 0 
653 1 1.732 -16.1593 0 
655 1 2.8553 -16.123 0 
657 1 3.97857 -16.0894 0 
659 1 5.10237 -16.0579 0 
661 1 6.22609 -16.0285 0 
663 1 7.35023 -16.0016 0 
665 1 8.47468 -15.9762 0 
667 1 9.59939 -15.953 0 
669 1 10.7246 -15.9311 0 
671 1 11.8501 -15.9104 0 
673 1 12.9759 -15.8912 0 
675 1 14.1018 -15.8732 0 
677 1 15.2281 -15.8569 0 
679 1 16.3546 -15.8417 0 
681 1 17.4811 -15.8273 0 
683 1 18.6076 -15.8143 0 
685 1 19.7344 -15.8023 0 
687 1 20.8614 -15.7912 0 
689 1 21.9883 -15.7807 0 
691 1 23.1154 -15.7707 0 
693 1 24.2426 -15.7617 0 
695 2 25.3699 -15.7527 0 
697 2 26.4989 -15.7471 0 
699 2 27.6281 -15.742 0 
701 2 -27.6483 -15.3934 0 
703 2 -26.5193 -15.357 0 
705 2 -25.3901 -15.3199 0 
707 2 -24.2607 -15.282 0 
709 1 -23.1292 -15.2397 0 
711 1 -21.9979 -15.1967 0 
713 1 -20.8665 -15.1531 0 
715 1 -19.7349 -15.1082 0 
717 1 -18.6033 -15.0626 0 
719 1 -17.4717 -15.0159 0 
721 1 -16.3402 -14.9683 0 
723 1 -15.2091 -14.9195 0 
725 1 -14.0782 -14.87 0 
727 1 -12.9477 -14.8193 0 
729 1 -11.818 -14.7678 0 
731 1 -10.6888 -14.7159 0 
733 1 -9.56037 -14.6624 0 
636 1 -7.84609 -15.5653 0 
735 1 -8.43232 -14.6091 0 
638 1 -6.71949 -15.5137 0 
737 1 -7.30501 -14.5557 0 
640 1 -5.59391 -15.4625 0 
739 1 -6.17881 -14.5026 0 
642 1 -4.46898 -15.4123 0 
644 1 -3.34504 -15.3632 0 
646 1 -2.22111 -15.3154 0 
648 1 -1.0975 -15.2701 0 
650 1 0.02577 -15.2271 0 
652 1 1.14929 -15.1868 0 
654 1 2.27288 -15.1492 0 
656 1 3.39643 -15.114 0 
658 1 4.52006 -15.082 0 
660 1 5.64388 -15.0516 0 
662 1 6.76822 -15.0237 0 
664 1 7.89309 -14.9978 0 
666 1 9.01834 -14.9736 0 
668 1 10.1436 -14.9515 0 
670 1 11.2692 -14.9306 0 
672 1 12.3953 -14.9112 0 
674 1 13.5218 -14.8928 0 
676 1 14.6485 -14.8762 0 
678 1 15.7754 -14.8607 0 
680 1 16.9024 -14.8461 0 
682 1 18.0293 -14.8327 0 
684 1 19.1565 -14.8206 0 
686 1 20.2839 -14.8092 0 
688 1 21.4113 -14.7987 0 
690 1 22.5387 -14.789 0 
692 1 23.6665 -14.7797 0 
694 1 24.7945 -14.7711 0 
696 2 25.9226 -14.7642 0 
698 2 27.0521 -14.7592 0 
700 2 28.1818 -14.7547 0 
702 2 -27.11 -14.4044 0 
801 2 -27.7009 -13.4516 0 
704 2 -25.9811 -14.3676 0 
803 2 -26.5724 -13.4152 0 
706 2 -24.852 -14.3301 0 
805 2 -25.4437 -13.3781 0 
708 1 -23.7214 -14.29 0 
807 2 -24.3146 -13.3401 0 
710 1 -22.5902 -14.247 0 
809 1 -23.1834 -13.2977 0 
712 1 -21.4588 -14.2036 0 
714 1 -20.3273 -14.1591 0 
716 1 -19.1955 -14.1135 0 
718 1 -18.0636 -14.0667 0 
720 1 -16.9318 -14.019 0 
722 1 -15.8002 -13.9699 0 
724 1 -14.6688 -13.92 0 
726 1 -13.5378 -13.8688 0 
728 1 -12.4073 -13.8163 0 
730 1 -11.2773 -13.7634 0 
732 1 -10.1482 -13.7091 0 
734 1 -9.01946 -13.6546 0 
736 1 -7.89143 -13.5994 0 
738 1 -6.76439 -13.5442 0 
740 1 -5.63839 -13.4901 0 
741 1 -5.05331 -14.4505 0 
742 1 -4.51333 -13.4365 0 
743 1 -3.9287 -14.3991 0 
744 1 -3.38877 -13.3846 0 
745 1 -2.80473 -14.3496 0 
746 1 -2.26488 -13.3349 0 
747 1 -1.681 -14.3021 0 
749 1 -0.557524 -14.2568 0 
751 1 0.565945 -14.2149 0 
753 1 1.68961 -14.1757 0 
755 1 2.81338 -14.1392 0 
757 1 3.9375 -14.1057 0 
759 1 5.06166 -14.0746 0 
761 1 6.18624 -14.0457 0 
763 1 7.31122 -14.0192 0 
765 1 8.43667 -13.9946 0 
767 1 9.56264 -13.9717 0 
769 1 10.6885 -13.9506 0 
771 1 11.8147 -13.9309 0 
773 1 12.9414 -13.9125 0 
775 1 14.0685 -13.8953 0 
777 1 15.1958 -13.8797 0 
779 1 16.3233 -13.865 0 
781 1 17.4507 -13.8512 0 
783 1 18.5783 -13.8389 0 
785 1 19.7061 -13.8274 0 
787 1 20.8341 -13.8168 0 
789 1 21.962 -13.807 0 
791 1 23.0899 -13.7979 0 
793 1 24.2181 -13.7892 0 
795 2 25.3462 -13.7811 0 
797 2 26.4761 -13.7764 0 
799 2 27.6062 -13.772 0 
802 2 -27.164 -12.4626 0 
804 2 -26.0357 -12.4259 0 
806 2 -24.9071 -12.3884 0 
808 1 -23.7768 -12.3481 0 
810 1 -22.646 -12.3054 0 
811 1 -22.052 -13.2544 0 
812 1 -21.5147 -12.2615 0 
813 1 -20.9206 -13.2101 0 
814 1 -20.3832 -12.2167 0 
815 1 -19.7888 -13.165 0 
816 1 -19.2512 -12.1704 0 
817 1 -18.6568 -13.1182 0 
818 1 -18.1191 -12.1226 0 
819 1 -17.5248 -13.0704 0 
821 1 -16.393 -13.0214 0 
823 1 -15.2611 -12.9712 0 
825 1 -14.1294 -12.9194 0 
827 1 -12.9982 -12.8665 0 
829 1 -11.8672 -12.8126 0 
831 1 -10.7372 -12.7574 0 
833 1 -9.60774 -12.7016 0 
835 1 -8.47932 -12.645 0 
837 1 -7.35155 -12.5881 0 
839 1 -6.22442 -12.5314 0 
841 1 -5.09864 -12.4754 0 
843 1 -3.97368 -12.421 0 
845 1 -2.84949 -12.3686 0 
748 1 -1.14136 -13.2875 0 
847 1 -1.72582 -12.3187 0 
849 1 -0.602191 -12.2724 0 
750 1 -0.0177967 -13.2432 0 
851 1 0.521598 -12.2293 0 
752 1 1.10574 -13.2025 0 
853 1 1.64549 -12.1897 0 
754 1 2.22952 -13.1646 0 
756 1 3.35386 -13.1296 0 
758 1 4.47858 -13.0973 0 
760 1 5.60357 -13.0676 0 
762 1 6.72891 -13.0405 0 
764 1 7.85457 -13.0152 0 
766 1 8.98069 -12.992 0 
768 1 10.1072 -12.9703 0 
770 1 11.234 -12.9503 0 
772 1 12.361 -12.9318 0 
774 1 13.4885 -12.9146 0 
776 1 14.6162 -12.8985 0 
778 1 15.7438 -12.8838 0 
780 1 16.8716 -12.8698 0 
782 1 17.9998 -12.8572 0 
784 1 19.1281 -12.8456 0 
786 1 20.2565 -12.835 0 
788 1 21.3849 -12.825 0 
790 1 22.5134 -12.816 0 
792 1 23.642 -12.8074 0 
794 1 24.7709 -12.7994 0 
796 2 25.9 -12.7934 0 
798 2 27.0306 -12.7893 0 
800 2 28.1612 -12.7854 0 
901 2 -27.7557 -11.5099 0 
903 2 -26.6279 -11.4735 0 
905 2 -25.4997 -11.4364 0 
907 2 -24.3713 -11.3985 0 
909 1 -23.2406 -11.3562 0 
911 1 -22.1096 -11.3131 0 
913 1 -20.9782 -11.2687 0 
915 1 -19.8465 -11.223 0 
917 1 -18.7146 -11.1756 0 
820 1 -16.9869 -12.0737 0 
919 1 -17.5825 -11.1269 0 
822 1 -15.8548 -12.0236 0 
921 1 -16.4501 -11.0769 0 
824 1 -14.7228 -11.9717 0 
923 1 -15.3179 -11.025 0 
826 1 -13.5909 -11.9182 0 
828 1 -12.4592 -11.8637 0 
830 1 -11.3283 -11.8075 0 
832 1 -10.198 -11.7506 0 
834 1 -9.06867 -11.6923 0 
836 1 -7.94012 -11.6338 0 
838 1 -6.81231 -11.575 0 
840 1 -5.68577 -11.5164 0 
842 1 -4.56015 -11.4592 0 
844 1 -3.43564 -11.4036 0 
846 1 -2.31162 -11.3509 0 
848 1 -1.18787 -11.302 0 
850 1 -0.0643393 -11.2568 0 
852 1 1.05978 -11.2154 0 
855 1 2.76977 -12.1537 0 
854 1 2.18453 -11.1775 0 
857 1 3.89467 -12.1203 0 
856 1 3.30955 -11.1431 0 
859 1 5.01999 -12.0895 0 
858 1 4.43528 -11.1114 0 
861 1 6.1458 -12.0617 0 
860 1 5.56149 -11.0827 0 
863 1 7.27193 -12.0359 0 
862 1 6.68819 -11.0566 0 
865 1 8.39846 -12.0119 0 
864 1 7.81535 -11.0321 0 
867 1 9.52531 -11.9901 0 
869 1 10.6527 -11.9698 0 
871 1 11.7801 -11.9507 0 
873 1 12.9079 -11.9334 0 
875 1 14.0359 -11.9173 0 
877 1 15.1641 -11.9021 0 
879 1 16.2924 -11.8882 0 
881 1 17.421 -11.8754 0 
883 1 18.5498 -11.8637 0 
885 1 19.6786 -11.853 0 
887 1 20.8075 -11.8432 0 
889 1 21.9367 -11.8341 0 
891 1 23.0658 -11.8255 0 
893 1 24.195 -11.8179 0 
895 2 25.3239 -11.8103 0 
897 2 26.4549 -11.8064 0 
899 2 27.586 -11.8028 0 
902 2 -27.2202 -10.5209 0 
904 2 -26.0925 -10.4842 0 
906 2 -24.9646 -10.4468 0 
908 1 -23.8352 -10.4068 0 
910 1 -22.7049 -10.3644 0 
912 1 -21.574 -10.3208 0 
914 1 -20.4427 -10.2757 0 
916 1 -19.3112 -10.2289 0 
918 1 -18.1793 -10.1807 0 
920 1 -17.047 -10.131 0 
922 1 -15.9145 -10.0792 0 
924 1 -14.7821 -10.0258 0 
925 1 -14.1856 -10.9714 0 
926 1 -13.6495 -9.97056 0 
927 1 -13.0532 -10.9162 0 
928 1 -12.5168 -9.91325 0 
929 1 -11.9214 -10.8595 0 
930 1 -11.3846 -9.8547 0 
931 1 -10.7901 -10.8016 0 
933 1 -9.65976 -10.7418 0 
935 1 -8.53022 -10.6814 0 
937 1 -7.40157 -10.6207 0 
939 1 -6.2742 -10.5594 0 
941 1 -5.1479 -10.4993 0 
943 1 -4.02294 -10.4402 0 
945 1 -2.89879 -10.3846 0 
947 1 -1.77477 -10.3324 0 
949 1 -0.650898 -10.2844 0 
951 1 0.473444 -10.2411 0 
953 1 1.59835 -10.2017 0 
955 1 2.72372 -10.1658 0 
957 1 3.84978 -10.1334 0 
959 1 4.97653 -10.1037 0 
961 1 6.10375 -10.0769 0 
963 1 7.23135 -10.0521 0 
965 1 8.35957 -10.0294 0 
866 1 8.94299 -11.0097 0 
967 1 9.48809 -10.0083 0 
868 1 10.0708 -10.9892 0 
969 1 10.6169 -9.98858 0 
870 1 11.1987 -10.9697 0 
971 1 11.7459 -9.97076 0 
872 1 12.3271 -10.9522 0 
973 1 12.8749 -9.95423 0 
874 1 13.4556 -10.9358 0 
975 1 14.0043 -9.93888 0 
876 1 14.5843 -10.9206 0 
977 1 15.1337 -9.92467 0 
878 1 15.7133 -10.9064 0 
979 1 16.2635 -9.91147 0 
880 1 16.8425 -10.8934 0 
981 1 17.3933 -9.89954 0 
882 1 17.9718 -10.8816 0 
983 1 18.5232 -9.88872 0 
884 1 19.101 -10.8709 0 
985 1 19.6532 -9.87875 0 
886 1 20.2302 -10.8611 0 
987 1 20.7832 -9.86979 0 
888 1 21.3599 -10.8522 0 
890 1 22.4895 -10.8436 0 
989 1 21.9132 -9.86162 0 
892 1 23.6193 -10.8361 0 
991 1 23.0434 -9.85405 0 
894 1 24.7492 -10.8288 0 
993 1 24.1736 -9.84703 0 
896 2 25.8793 -10.8234 0 
995 2 25.3037 -9.84035 0 
898 2 27.0108 -10.8201 0 
997 2 26.4357 -9.83726 0 
900 2 28.1423 -10.817 0 
999 2 27.5677 -9.8344 0 
1001 2 -27.8125 -9.56805 0 
1003 2 -26.6854 -9.5318 0 
1005 2 -25.5581 -9.49477 0 
1007 2 -24.4305 -9.45693 0 
1009 1 -23.3006 -9.41531 0 
1011 1 -22.1702 -9.37271 0 
1013 1 -21.0395 -9.32836 0 
1015 1 -19.9085 -9.28239 0 
1017 1 -18.777 -9.2349 0 
1019 1 -17.6451 -9.18567 0 
1021 1 -16.5129 -9.13454 0 
1023 1 -15.3802 -9.08136 0 
1025 1 -14.2475 -9.0263 0 
1027 1 -13.1145 -8.969 0 
1029 1 -11.9812 -8.90969 0 
932 1 -10.2531 -9.79375 0 
1031 1 -10.849 -8.84809 0 
934 1 -9.12247 -9.73148 0 
1033 1 -9.71733 -8.78437 0 
936 1 -7.99278 -9.66874 0 
1035 1 -8.58622 -8.71968 0 
938 1 -6.86463 -9.6049 0 
940 1 -5.73752 -9.54174 0 
942 1 -4.61184 -9.47906 0 
944 1 -3.48701 -9.41941 0 
946 1 -2.36302 -9.36411 0 
948 1 -1.23902 -9.31287 0 
950 1 -0.114293 -9.26715 0 
952 1 1.01089 -9.22586 0 
954 1 2.13664 -9.18846 0 
956 1 3.26312 -9.15506 0 
958 1 4.39028 -9.12472 0 
960 1 5.51816 -9.09712 0 
962 1 6.64651 -9.07179 0 
964 1 7.77547 -9.04873 0 
966 1 8.90476 -9.02739 0 
968 1 10.0344 -9.00754 0 
970 1 11.1641 -8.98904 0 
972 1 12.2939 -8.97248 0 
974 1 13.424 -8.95702 0 
976 1 14.5541 -8.94268 0 
978 1 15.6843 -8.9295 0 
980 1 16.8146 -8.9173 0 
982 1 17.945 -8.90645 0 
984 1 19.0756 -8.89664 0 
986 1 20.2064 -8.88735 0 
988 1 21.3371 -8.87917 0 
990 1 22.4677 -8.87187 0 
992 1 23.5984 -8.86515 0 
994 1 24.7294 -8.85872 0 
996 2 25.8608 -8.85435 0 
998 2 26.9933 -8.85174 0 
1000 2 28.1257 -8.84931 0 
1002 2 -27.2783 -8.57905 0 
1101 2 -27.8711 -7.62598 0 
1004 2 -26.1516 -8.54247 0 
1103 2 -26.7449 -7.58983 0 
1006 2 -25.0246 -8.50509 0 
1105 2 -25.6186 -7.5529 0 
1008 1 -23.896 -8.46551 0 
1107 2 -24.492 -7.51516 0 
1010 1 -22.7665 -8.42399 0 
1012 1 -21.6367 -8.38066 0 
1014 1 -20.5065 -8.33553 0 
1016 1 -19.3757 -8.28899 0 
1018 1 -18.2443 -8.24062 0 
1020 1 -17.1125 -8.19027 0 
1022 1 -15.9802 -8.13779 0 
1024 1 -14.8476 -8.08311 0 
1026 1 -13.7148 -8.02617 0 
1028 1 -12.5814 -7.96699 0 
1030 1 -11.448 -7.90476 0 
1032 1 -10.3151 -7.84013 0 
1034 1 -9.1826 -7.77358 0 
1036 1 -8.05173 -7.70473 0 
1037 1 -7.45674 -8.65312 0 
1038 1 -6.9219 -7.63504 0 
1039 1 -6.32855 -8.58679 0 
1041 1 -5.20209 -8.52044 0 
1043 1 -4.07691 -8.45665 0 
1045 1 -2.95253 -8.39681 0 
1047 1 -1.82862 -8.34204 0 
1049 1 -0.70396 -8.29353 0 
1051 1 0.421478 -8.2499 0 
1053 1 1.54773 -8.21101 0 
1055 1 2.67498 -8.17644 0 
1057 1 3.80288 -8.14531 0 
1059 1 4.93146 -8.11728 0 
1061 1 6.06072 -8.09154 0 
1063 1 7.19062 -8.06808 0 
1065 1 8.32082 -8.04631 0 
1067 1 9.45124 -8.02652 0 
1069 1 10.5818 -8.00766 0 
1071 1 11.7126 -7.9906 0 
1073 1 12.8435 -7.9751 0 
1075 1 13.9743 -7.96056 0 
1077 1 15.1051 -7.94733 0 
1079 1 16.236 -7.93497 0 
1081 1 17.3673 -7.92397 0 
1083 1 18.4985 -7.91423 0 
1085 1 19.6296 -7.90498 0 
1087 1 20.7608 -7.89678 0 
1089 1 21.8921 -7.8897 0 
1091 1 23.0234 -7.88305 0 
1093 1 24.1547 -7.87713 0 
1095 2 25.2861 -7.87134 0 
1097 2 26.419 -7.86899 0 
1099 2 27.5519 -7.8668 0 
1102 2 -27.3381 -6.63684 0 
1104 2 -26.2124 -6.60035 0 
1106 2 -25.0865 -6.56307 0 
1108 1 -23.9593 -6.52429 0 
1109 1 -23.363 -7.47442 0 
1110 1 -22.8315 -6.48305 0 
1111 1 -22.2341 -7.43226 0 
1112 1 -21.703 -6.44051 0 
1113 1 -21.1048 -7.38832 0 
1114 1 -20.5741 -6.39604 0 
1115 1 -19.9748 -7.3426 0 
1116 1 -19.4446 -6.34957 0 
1117 1 -18.8441 -7.29538 0 
1119 1 -17.713 -7.24596 0 
1121 1 -16.5816 -7.19449 0 
1123 1 -15.4496 -7.14066 0 
1125 1 -14.317 -7.08429 0 
1127 1 -13.1838 -7.02565 0 
1129 1 -12.0501 -6.96377 0 
1131 1 -10.9164 -6.89862 0 
1133 1 -9.78283 -6.83097 0 
1135 1 -8.65006 -6.75991 0 
1137 1 -7.51861 -6.68731 0 
1139 1 -6.38916 -6.61329 0 
1040 1 -5.79405 -7.56489 0 
1141 1 -5.26177 -6.53927 0 
1042 1 -4.66806 -7.49627 0 
1143 1 -4.13638 -6.46847 0 
1044 1 -3.54351 -7.43152 0 
1046 1 -2.41939 -7.372 0 
1048 1 -1.29462 -7.31997 0 
1050 1 -0.169227 -7.27408 0 
1052 1 0.957383 -7.23337 0 
1054 1 2.08517 -7.19781 0 
1056 1 3.21373 -7.16581 0 
1058 1 4.3433 -7.1371 0 
1060 1 5.47379 -7.11128 0 
1062 1 6.60471 -7.08749 0 
1064 1 7.73599 -7.06552 0 
1066 1 8.86752 -7.04531 0 
1068 1 9.99905 -7.02648 0 
1070 1 11.1307 -7.00883 0 
1072 1 12.2625 -6.99305 0 
1074 1 13.3943 -6.97845 0 
1076 1 14.5259 -6.96482 0 
1078 1 15.6575 -6.95264 0 
1080 1 16.7895 -6.94139 0 
1082 1 17.9214 -6.93136 0 
1084 1 19.0529 -6.9225 0 
1086 1 20.1846 -6.91417 0 
1088 1 21.3166 -6.90729 0 
1090 1 22.4486 -6.901 0 
1092 1 23.5806 -6.89511 0 
1094 1 24.7127 -6.88978 0 
1096 2 25.8451 -6.88616 0 
1098 2 26.9784 -6.88422 0 
1100 2 28.1116 -6.88241 0 
1201 2 -27.9311 -5.68349 0 
1203 2 -26.806 -5.64742 0 