ITEM: TIMESTEP
2600
ITEM: NUMBER OF ATOMS
2850
ITEM: BOX BOUNDS ff ff pp
-42.092 42.092
-42.092 42.092
-0.280613 0.280613
ITEM: ATOMS id type xu yu zu 
1 2 -27.3398 -28.9988 0 
3 2 -26.2107 -28.9642 0 
5 2 -25.0816 -28.9291 0 
7 2 -23.9525 -28.8936 0 
9 2 -22.8235 -28.8577 0 
11 2 -21.6944 -28.8213 0 
13 2 -20.5655 -28.7844 0 
15 2 -19.4366 -28.7472 0 
17 2 -18.3079 -28.7095 0 
19 2 -17.1793 -28.6715 0 
21 2 -16.0508 -28.6331 0 
23 2 -14.9226 -28.5944 0 
25 2 -13.7947 -28.5554 0 
27 2 -12.667 -28.5163 0 
29 2 -11.5396 -28.477 0 
31 2 -10.4126 -28.4376 0 
33 2 -9.28592 -28.3982 0 
35 2 -8.15967 -28.3589 0 
37 2 -7.03386 -28.3198 0 
39 2 -5.90848 -28.281 0 
2 2 -26.7941 -28.0086 0 
4 2 -25.6649 -27.9736 0 
6 2 -24.5357 -27.9381 0 
8 2 -23.4065 -27.902 0 
10 2 -22.2773 -27.8656 0 
12 2 -21.1481 -27.8286 0 
14 2 -20.019 -27.7912 0 
16 2 -18.89 -27.7533 0 
18 2 -17.7611 -27.715 0 
20 2 -16.6324 -27.6763 0 
22 2 -15.5039 -27.6373 0 
24 2 -14.3755 -27.5979 0 
26 2 -13.2475 -27.5582 0 
28 2 -12.1197 -27.5183 0 
30 2 -10.9923 -27.4783 0 
32 2 -9.86522 -27.4382 0 
34 2 -8.73856 -27.3981 0 
36 2 -7.61233 -27.3581 0 
38 2 -6.48656 -27.3184 0 
40 2 -5.36126 -27.2789 0 
41 2 -4.78357 -28.2426 0 
42 2 -4.23645 -27.24 0 
43 2 -3.65912 -28.2046 0 
44 2 -3.11213 -27.2015 0 
45 2 -2.53513 -28.1673 0 
46 2 -1.98828 -27.1638 0 
47 2 -1.41159 -28.1307 0 
48 2 -0.8649 -27.1269 0 
49 2 -0.288464 -28.095 0 
51 2 0.834263 -28.0602 0 
53 2 1.95663 -28.0264 0 
55 2 3.07869 -27.9937 0 
57 2 4.20048 -27.9622 0 
59 2 5.32207 -27.9319 0 
61 2 6.4435 -27.9029 0 
63 2 7.56483 -27.8752 0 
65 2 8.68613 -27.8488 0 
67 2 9.80743 -27.8237 0 
69 2 10.9288 -27.8 0 
71 2 12.0503 -27.7775 0 
73 2 13.1719 -27.7563 0 
75 2 14.2937 -27.7363 0 
77 2 15.4157 -27.7174 0 
79 2 16.538 -27.6997 0 
81 2 17.6605 -27.683 0 
83 2 18.7832 -27.6673 0 
85 2 19.9063 -27.6526 0 
87 2 21.0296 -27.6388 0 
89 2 22.1532 -27.6258 0 
91 2 23.2771 -27.6136 0 
93 2 24.4012 -27.6022 0 
95 2 25.5256 -27.5914 0 
97 2 26.6503 -27.5812 0 
99 2 27.7752 -27.5717 0 
101 2 -27.378 -27.0533 0 
103 2 -26.2487 -27.0183 0 
102 2 -26.833 -26.0633 0 
105 2 -25.1194 -26.9828 0 
104 2 -25.7037 -26.0278 0 
107 2 -23.9901 -26.9468 0 
106 2 -24.5742 -25.9918 0 
109 2 -22.8607 -26.9102 0 
108 1 -23.4442 -25.9546 0 
111 2 -21.7314 -26.8732 0 
113 2 -20.6021 -26.8357 0 
115 2 -19.4729 -26.7977 0 
117 2 -18.3437 -26.7591 0 
119 2 -17.2147 -26.7202 0 
121 2 -16.0858 -26.6808 0 
123 2 -14.9572 -26.641 0 
125 2 -13.8287 -26.6009 0 
127 2 -12.7006 -26.5605 0 
129 2 -11.5727 -26.5198 0 
131 2 -10.4452 -26.479 0 
133 2 -9.31813 -26.4382 0 
135 2 -8.19146 -26.3973 0 
137 2 -7.06526 -26.3566 0 
139 2 -5.93954 -26.3162 0 
141 2 -4.81433 -26.2762 0 
143 2 -3.68963 -26.2366 0 
145 2 -2.56545 -26.1977 0 
147 2 -1.44177 -26.1596 0 
50 2 0.258046 -27.0909 0 
149 2 -0.318563 -26.1224 0 
52 2 1.38059 -27.056 0 
151 2 0.804196 -26.0862 0 
54 2 2.50279 -27.0222 0 
153 2 1.92656 -26.0512 0 
56 2 3.62468 -26.9896 0 
155 2 3.04857 -26.0174 0 
58 2 4.74633 -26.9582 0 
157 2 4.1703 -25.9849 0 
60 2 5.86779 -26.9282 0 
159 2 5.2918 -25.9538 0 
62 2 6.98913 -26.8996 0 
64 2 8.11041 -26.8723 0 
66 2 9.23169 -26.8465 0 
68 2 10.353 -26.822 0 
70 2 11.4745 -26.7989 0 
72 2 12.596 -26.7771 0 
74 2 13.7178 -26.7566 0 
76 2 14.8398 -26.7373 0 
78 2 15.962 -26.7192 0 
80 2 17.0845 -26.7023 0 
82 2 18.2073 -26.6863 0 
84 2 19.3304 -26.6714 0 
86 2 20.4538 -26.6575 0 
88 2 21.5774 -26.6444 0 
90 2 22.7014 -26.6321 0 
92 2 23.8256 -26.6206 0 
94 2 24.9501 -26.6098 0 
96 2 26.0749 -26.5996 0 
98 2 27.2 -26.5901 0 
100 2 28.3253 -26.5811 0 
201 2 -27.4179 -25.1085 0 
203 2 -26.2885 -25.0731 0 
205 2 -25.159 -25.0372 0 
207 2 -24.0295 -25.0007 0 
209 1 -22.8987 -24.962 0 
110 1 -22.3146 -25.9177 0 
211 1 -21.7683 -24.9247 0 
112 1 -21.1846 -25.88 0 
213 1 -20.6378 -24.8868 0 
114 1 -20.0545 -25.842 0 
215 1 -19.508 -24.8467 0 
116 1 -18.9249 -25.8021 0 
217 1 -18.3777 -24.8067 0 
118 1 -17.7956 -25.7629 0 
120 1 -16.6664 -25.723 0 
122 1 -15.5379 -25.6822 0 
124 1 -14.4088 -25.6417 0 
126 1 -13.2805 -25.6016 0 
128 1 -12.1528 -25.5609 0 
130 1 -11.0251 -25.5193 0 
132 1 -9.89854 -25.478 0 
134 1 -8.7719 -25.4368 0 
136 1 -7.64554 -25.395 0 
138 1 -6.51944 -25.3532 0 
140 1 -5.39349 -25.3126 0 
142 1 -4.26863 -25.2715 0 
144 1 -3.14475 -25.2322 0 
146 1 -2.02086 -25.1926 0 
148 1 -0.898125 -25.1546 0 
150 1 0.224527 -25.1175 0 
152 1 1.34746 -25.0819 0 
154 1 2.46977 -25.0465 0 
156 1 3.59181 -25.0134 0 
158 1 4.71353 -24.9814 0 
160 1 5.83492 -24.9519 0 
161 2 6.41316 -25.9242 0 
162 1 6.95688 -24.9215 0 
163 2 7.53443 -25.896 0 
164 1 8.07812 -24.8946 0 
165 2 8.65568 -25.8693 0 
167 2 9.77697 -25.844 0 
166 1 9.19977 -24.8675 0 
169 2 10.8984 -25.8202 0 
168 1 10.3215 -24.8434 0 
171 2 12.0199 -25.7978 0 
170 1 11.4434 -24.8205 0 
173 2 13.1416 -25.7768 0 
175 2 14.2636 -25.7571 0 
177 2 15.3858 -25.7386 0 
179 2 16.5083 -25.7213 0 
181 2 17.6311 -25.7052 0 
183 2 18.7543 -25.6901 0 
185 2 19.8777 -25.6759 0 
187 2 21.0014 -25.6627 0 
189 2 22.1254 -25.6504 0 
191 2 23.2498 -25.6388 0 
193 2 24.3744 -25.628 0 
195 2 25.4993 -25.6179 0 
197 2 26.6245 -25.6084 0 
199 2 27.75 -25.5994 0 
202 2 -26.8739 -24.1187 0 
204 2 -25.7444 -24.0828 0 
206 2 -24.6148 -24.0464 0 
208 1 -23.4844 -24.0083 0 
210 1 -22.3539 -23.9698 0 
212 1 -21.2227 -23.9324 0 
214 1 -20.0928 -23.8923 0 
216 1 -18.9623 -23.8522 0 
219 1 -17.2482 -24.7665 0 
218 1 -17.832 -23.8111 0 
221 1 -16.1195 -24.7247 0 
220 1 -16.7032 -23.7687 0 
222 1 -15.573 -23.7281 0 
223 1 -14.9903 -24.6848 0 
224 1 -14.4426 -23.6872 0 
225 1 -13.8611 -24.6435 0 
227 1 -12.7335 -24.6019 0 
229 1 -11.6055 -24.5607 0 
231 1 -10.4779 -24.5179 0 
233 1 -9.35047 -24.4764 0 
235 1 -8.22392 -24.4338 0 
237 1 -7.09894 -24.3909 0 
239 1 -5.9735 -24.3496 0 
241 1 -4.84828 -24.3079 0 
243 1 -3.72305 -24.2661 0 
245 1 -2.59931 -24.2263 0 
247 1 -1.47563 -24.1865 0 
249 1 -0.3525 -24.1486 0 
251 1 0.769723 -24.1128 0 
253 1 1.89152 -24.0767 0 
255 1 3.01326 -24.0415 0 
257 1 4.13508 -24.0089 0 
259 1 5.257 -23.978 0 
261 1 6.37832 -23.9493 0 
263 1 7.50031 -23.9196 0 
265 1 8.62178 -23.8925 0 
267 1 9.74377 -23.8667 0 
269 1 10.866 -23.8435 0 
271 1 11.9883 -23.8206 0 
172 1 12.5651 -24.7985 0 
273 1 13.1103 -23.7998 0 
174 1 13.687 -24.7784 0 
275 1 14.2325 -23.7807 0 
176 1 14.8089 -24.7597 0 
277 1 15.355 -23.7627 0 
178 1 15.9311 -24.7421 0 
279 1 16.4784 -23.7459 0 
180 1 17.054 -24.7255 0 
281 1 17.6021 -23.7302 0 
182 1 18.1777 -24.7101 0 
283 1 18.7261 -23.7155 0 
184 1 19.3016 -24.6958 0 
285 1 19.8505 -23.7026 0 
186 1 20.4257 -24.6825 0 
287 1 20.9747 -23.6885 0 
188 1 21.5494 -24.6696 0 
289 1 22.0991 -23.6766 0 
190 1 22.674 -24.6579 0 
291 1 23.2238 -23.665 0 
192 1 23.7986 -24.6467 0 
293 1 24.3484 -23.6548 0 
194 1 24.9235 -24.6367 0 
295 2 25.4729 -23.6443 0 
196 2 26.0488 -24.6264 0 
198 2 27.1745 -24.6176 0 
200 2 28.3003 -24.6093 0 
301 2 -27.4598 -23.1644 0 
303 2 -26.3303 -23.1287 0 
305 2 -25.2007 -23.0924 0 
307 2 -24.071 -23.0555 0 
309 1 -22.9403 -23.0162 0 
311 1 -21.8087 -22.9788 0 
313 1 -20.6779 -22.9389 0 
315 1 -19.5476 -22.8986 0 
317 1 -18.4172 -22.8573 0 
319 1 -17.287 -22.8134 0 
321 1 -16.1567 -22.772 0 
323 1 -15.0265 -22.7311 0 
226 1 -13.3138 -23.6435 0 
325 1 -13.8978 -22.6867 0 
327 1 -12.7685 -22.644 0 
228 1 -12.1854 -23.6019 0 
329 1 -11.6409 -22.5998 0 
230 1 -11.0582 -23.5584 0 
331 1 -10.5134 -22.556 0 
232 1 -9.93154 -23.5162 0 
333 1 -9.38629 -22.5133 0 
234 1 -8.80526 -23.4735 0 
236 1 -7.6797 -23.4293 0 
238 1 -6.55361 -23.3869 0 
240 1 -5.42801 -23.3447 0 
242 1 -4.30301 -23.3023 0 
244 1 -3.17877 -23.2597 0 
246 1 -2.0559 -23.2196 0 
248 1 -0.932601 -23.181 0 
250 1 0.190425 -23.1432 0 
252 1 1.31256 -23.1072 0 
254 1 2.43454 -23.0707 0 
256 1 3.55643 -23.036 0 
258 1 4.67833 -23.0041 0 
260 1 5.80093 -22.975 0 
262 1 6.92249 -22.9458 0 
264 1 8.04467 -22.9174 0 
266 1 9.16637 -22.891 0 
268 1 10.2883 -22.8662 0 
270 1 11.4106 -22.8433 0 
272 1 12.533 -22.8215 0 
274 1 13.6551 -22.8019 0 
276 1 14.7776 -22.783 0 
278 1 15.9012 -22.7665 0 
280 1 17.0252 -22.7504 0 
282 1 18.1491 -22.7357 0 
284 1 19.2734 -22.7222 0 
286 1 20.3978 -22.7085 0 
288 1 21.5228 -22.6956 0 
290 1 22.6479 -22.6838 0 
292 1 23.7727 -22.6724 0 
294 1 24.8974 -22.6629 0 
297 2 26.5987 -23.6355 0 
296 2 26.0228 -22.6533 0 
299 2 27.7248 -23.6273 0 
298 2 27.149 -22.6452 0 
300 2 28.2755 -22.6376 0 
302 2 -26.9167 -22.1747 0 
304 2 -25.7871 -22.1385 0 
306 2 -24.6574 -22.1018 0 
308 1 -23.5266 -22.0633 0 
310 1 -22.3951 -22.025 0 
312 1 -21.2644 -21.9858 0 
314 1 -20.1342 -21.9451 0 
316 1 -19.003 -21.9042 0 
318 1 -17.8726 -21.8603 0 
320 1 -16.7418 -21.817 0 
322 1 -15.611 -21.7752 0 
324 1 -14.482 -21.7307 0 
326 1 -13.3522 -21.6879 0 
328 1 -12.2237 -21.6425 0 
330 1 -11.0955 -21.5977 0 
332 1 -9.96767 -21.5539 0 
334 1 -8.84137 -21.5087 0 
335 1 -8.26029 -22.4688 0 
336 1 -7.71525 -21.4642 0 
337 1 -7.1342 -22.4252 0 
338 1 -6.58945 -21.42 0 
339 1 -6.00858 -22.3819 0 
340 1 -5.46413 -21.3761 0 
341 1 -4.88379 -22.339 0 
343 1 -3.75964 -22.2954 0 
345 1 -2.63567 -22.2529 0 
347 1 -1.51229 -22.2134 0 
349 1 -0.389112 -22.1747 0 
351 1 0.733655 -22.1368 0 
353 1 1.85572 -22.1002 0 
355 1 2.97827 -22.0646 0 
357 1 4.10078 -22.031 0 
359 1 5.22319 -22.0009 0 
361 1 6.34458 -21.9707 0 
363 1 7.46657 -21.9427 0 
365 1 8.58869 -21.9149 0 
367 1 9.71073 -21.8898 0 
369 1 10.8326 -21.8657 0 
371 1 11.9557 -21.8436 0 
373 1 13.0788 -21.8232 0 
375 1 14.2017 -21.8035 0 
377 1 15.3251 -21.7863 0 
379 1 16.449 -21.7708 0 
381 1 17.5734 -21.7556 0 
383 1 18.6978 -21.7417 0 
385 1 19.822 -21.7281 0 
387 1 20.9464 -21.7149 0 
389 1 22.0718 -21.7032 0 
391 1 23.1973 -21.6915 0 
393 1 24.3226 -21.6808 0 
395 2 25.4466 -21.6709 0 
397 2 26.573 -21.6629 0 
399 2 27.6998 -21.6554 0 
401 2 -27.5037 -21.2208 0 
403 2 -26.3741 -21.1849 0 
402 2 -26.9617 -20.2313 0 
405 2 -25.2445 -21.1483 0 
404 2 -25.8321 -20.1949 0 
407 2 -24.1147 -21.111 0 
409 1 -22.9826 -21.0716 0 
411 1 -21.8511 -21.0323 0 
413 1 -20.7203 -20.9912 0 
415 1 -19.5896 -20.9512 0 
417 1 -18.459 -20.9084 0 
419 1 -17.3279 -20.8639 0 
421 1 -16.197 -20.8209 0 
423 1 -15.0669 -20.7758 0 
425 1 -13.937 -20.7325 0 
427 1 -12.8079 -20.6876 0 
429 1 -11.6789 -20.6409 0 
431 1 -10.5501 -20.5957 0 
433 1 -9.42348 -20.5494 0 
435 1 -8.29677 -20.5041 0 
437 1 -7.17033 -20.459 0 
439 1 -6.04433 -20.414 0 
342 1 -4.33973 -21.3316 0 
441 1 -4.9199 -20.3685 0 
344 1 -3.21551 -21.2882 0 
443 1 -3.7962 -20.3238 0 
346 1 -2.09192 -21.2461 0 
445 1 -2.67254 -20.2802 0 
348 1 -0.968519 -21.2064 0 
447 1 -1.54857 -20.2389 0 
350 1 0.154671 -21.1677 0 
352 1 1.2771 -21.1296 0 
354 1 2.3993 -21.0937 0 
356 1 3.52173 -21.0591 0 
358 1 4.64379 -21.0271 0 
360 1 5.76521 -20.9961 0 
362 1 6.88772 -20.9669 0 
364 1 8.00968 -20.9387 0 
366 1 9.13223 -20.9135 0 
368 1 10.2545 -20.8882 0 
370 1 11.3778 -20.8662 0 
372 1 12.501 -20.8443 0 
374 1 13.6242 -20.8251 0 
376 1 14.7485 -20.8069 0 
378 1 15.8728 -20.7908 0 
380 1 16.9968 -20.7754 0 
382 1 18.1213 -20.7609 0 
384 1 19.2459 -20.7474 0 
386 1 20.3709 -20.7341 0 
388 1 21.4964 -20.7222 0 
390 1 22.6216 -20.7106 0 
392 1 23.7468 -20.6995 0 
394 1 24.8719 -20.6894 0 
396 2 25.9969 -20.6804 0 
398 2 27.1238 -20.673 0 
400 2 28.251 -20.6661 0 
501 2 -27.5497 -19.2779 0 
503 2 -26.4202 -19.2417 0 
505 2 -25.2906 -19.2049 0 
406 2 -24.7023 -20.1579 0 
507 2 -24.1608 -19.1673 0 
408 1 -23.5712 -20.1189 0 
509 1 -23.0292 -19.1269 0 
410 1 -22.4395 -20.0793 0 
511 1 -21.898 -19.0872 0 
412 1 -21.3081 -20.0388 0 
513 1 -20.7662 -19.0463 0 
414 1 -20.1766 -19.998 0 
416 1 -19.0464 -19.9565 0 
418 1 -17.9155 -19.9125 0 
420 1 -16.7841 -19.8676 0 
422 1 -15.6536 -19.8228 0 
424 1 -14.5228 -19.7776 0 
426 1 -13.3932 -19.7328 0 
428 1 -12.2643 -19.686 0 
430 1 -11.1346 -19.6393 0 
432 1 -10.0067 -19.5916 0 
434 1 -8.87873 -19.5455 0 
436 1 -7.75166 -19.499 0 
438 1 -6.6262 -19.4527 0 
440 1 -5.50088 -19.4064 0 
442 1 -4.37701 -19.3602 0 
444 1 -3.25324 -19.3153 0 
446 1 -2.12899 -19.2721 0 
448 1 -1.0052 -19.2314 0 
449 1 -0.424921 -20.1992 0 
450 1 0.117408 -19.1905 0 
451 1 0.697516 -20.1599 0 
452 1 1.24024 -19.1517 0 
453 1 1.81984 -20.1226 0 
454 1 2.36278 -19.1146 0 
455 1 2.94185 -20.0874 0 
456 1 3.48487 -19.0802 0 
457 1 4.06433 -20.0531 0 
459 1 5.18636 -20.0216 0 
461 1 6.30855 -19.9919 0 
463 1 7.43033 -19.9623 0 
465 1 8.55298 -19.9365 0 
467 1 9.67563 -19.9112 0 
469 1 10.799 -19.8883 0 
471 1 11.9223 -19.8658 0 
473 1 13.0467 -19.846 0 
475 1 14.1706 -19.8278 0 
477 1 15.2947 -19.8107 0 
479 1 16.4188 -19.795 0 
481 1 17.5442 -19.7806 0 
483 1 18.6692 -19.7661 0 
485 1 19.7935 -19.7531 0 
487 1 20.9184 -19.741 0 
489 1 22.0444 -19.7295 0 
491 1 23.1699 -19.7182 0 
493 1 24.2956 -19.7078 0 
495 2 25.4205 -19.6978 0 
497 2 26.5477 -19.6905 0 
499 2 27.6751 -19.6838 0 
502 2 -27.0088 -18.2886 0 
504 2 -25.8793 -18.252 0 
506 2 -24.7497 -18.2147 0 
508 1 -23.6185 -18.1755 0 
510 1 -22.4874 -18.1352 0 
512 1 -21.3562 -18.0952 0 
514 1 -20.225 -18.053 0 
515 1 -19.635 -19.0041 0 
516 1 -19.0933 -18.0102 0 
517 1 -18.5042 -18.9616 0 
518 1 -17.9621 -17.9662 0 
519 1 -17.3728 -18.9165 0 
520 1 -16.8303 -17.9197 0 
521 1 -16.2414 -18.8702 0 
523 1 -15.1105 -18.8249 0 
525 1 -13.9796 -18.7785 0 
527 1 -12.8496 -18.7315 0 
529 1 -11.7197 -18.6846 0 
531 1 -10.5913 -18.6356 0 
533 1 -9.46309 -18.5884 0 
535 1 -8.33547 -18.5409 0 
537 1 -7.20902 -18.4925 0 
539 1 -6.08323 -18.4453 0 
541 1 -4.95827 -18.3975 0 
543 1 -3.83391 -18.3516 0 
545 1 -2.71005 -18.3063 0 
547 1 -1.58647 -18.264 0 
549 1 -0.463832 -18.2218 0 
551 1 0.659193 -18.1817 0 
553 1 1.78199 -18.143 0 
555 1 2.9045 -18.107 0 
557 1 4.02707 -18.0728 0 
458 1 4.60745 -19.0469 0 
559 1 5.14964 -18.0402 0 
460 1 5.72903 -19.0163 0 
561 1 6.27162 -18.0106 0 
462 1 6.85082 -18.9865 0 
563 1 7.39387 -17.9822 0 
464 1 7.97344 -18.9594 0 
565 1 8.51737 -17.9566 0 
466 1 9.09675 -18.9342 0 
567 1 9.64077 -17.9325 0 
468 1 10.2205 -18.9103 0 
569 1 10.7647 -17.9096 0 
470 1 11.344 -18.8875 0 
472 1 12.4683 -18.867 0 
474 1 13.5923 -18.8478 0 
476 1 14.7169 -18.8307 0 
478 1 15.8412 -18.8139 0 
480 1 16.9665 -18.8003 0 
482 1 18.0921 -18.7856 0 
484 1 19.2178 -18.7717 0 
486 1 20.3427 -18.7596 0 
488 1 21.4682 -18.7484 0 
490 1 22.5939 -18.7367 0 
492 1 23.72 -18.7262 0 
494 1 24.8457 -18.7158 0 
496 2 25.9714 -18.7078 0 
498 2 27.0991 -18.7012 0 
500 2 28.2271 -18.6951 0 
601 2 -27.5979 -17.3354 0 
603 2 -26.4686 -17.2992 0 
605 2 -25.3391 -17.2621 0 
607 2 -24.2094 -17.2244 0 
609 1 -23.0778 -17.1837 0 
611 1 -21.9463 -17.1438 0 
613 1 -20.8151 -17.1023 0 
615 1 -19.6832 -17.0597 0 
617 1 -18.5514 -17.0153 0 
619 1 -17.42 -16.9702 0 
522 1 -15.6981 -17.873 0 
621 1 -16.2875 -16.9232 0 
524 1 -14.5672 -17.8264 0 
623 1 -15.1555 -16.8753 0 
526 1 -13.4371 -17.7784 0 
625 1 -14.0249 -16.8273 0 
528 1 -12.3072 -17.7311 0 
627 1 -12.8941 -16.7784 0 
530 1 -11.1782 -17.6817 0 
532 1 -10.0483 -17.6328 0 
534 1 -8.91985 -17.5839 0 
536 1 -7.79292 -17.5345 0 
538 1 -6.66679 -17.4851 0 
540 1 -5.54144 -17.436 0 
542 1 -4.41617 -17.3883 0 
544 1 -3.29267 -17.3418 0 
546 1 -2.1691 -17.2972 0 
548 1 -1.04598 -17.2538 0 
550 1 0.0779903 -17.2123 0 
552 1 1.20115 -17.1721 0 
554 1 2.3238 -17.1344 0 
556 1 3.44581 -17.0991 0 
558 1 4.5679 -17.0651 0 
560 1 5.69065 -17.0341 0 
562 1 6.81351 -17.0054 0 
564 1 7.93718 -16.979 0 
566 1 9.06064 -16.9537 0 
568 1 10.1844 -16.9309 0 
571 1 11.8889 -17.888 0 
570 1 11.3083 -16.9089 0 
573 1 13.0129 -17.8676 0 
572 1 12.4331 -16.8883 0 
575 1 14.1375 -17.8506 0 
574 1 13.5584 -16.8701 0 
577 1 15.2623 -17.8335 0 
576 1 14.6832 -16.8534 0 
579 1 16.3878 -17.8191 0 
578 1 15.8087 -16.8379 0 
581 1 17.5131 -17.8048 0 
580 1 16.934 -16.8236 0 
583 1 18.6395 -17.7911 0 
582 1 18.0605 -16.8102 0 
585 1 19.7658 -17.778 0 
584 1 19.1872 -16.7967 0 
587 1 20.8917 -17.7669 0 
586 1 20.3136 -16.7849 0 
589 1 22.0175 -17.755 0 
588 1 21.4397 -16.7737 0 
591 1 23.1437 -17.7447 0 
590 1 22.5661 -16.7628 0 
593 1 24.2698 -17.7344 0 
592 1 23.6929 -16.7527 0 
595 2 25.3948 -17.725 0 
594 1 24.8196 -16.7429 0 
596 2 25.9465 -16.7357 0 
597 2 26.5229 -17.7186 0 
598 2 27.0751 -16.7299 0 
599 2 27.6512 -17.7126 0 
600 2 28.2039 -16.7246 0 
602 2 -27.0583 -16.3463 0 
604 2 -25.929 -16.3096 0 
606 2 -24.7995 -16.2721 0 
608 1 -23.6686 -16.2332 0 
610 1 -22.5369 -16.1922 0 
612 1 -21.4055 -16.151 0 
614 1 -20.2741 -16.1093 0 
616 1 -19.1422 -16.0656 0 
618 1 -18.0098 -16.0201 0 
620 1 -16.878 -15.9743 0 
622 1 -15.7458 -15.9261 0 
624 1 -14.6136 -15.8771 0 
626 1 -13.4822 -15.828 0 
628 1 -12.3517 -15.7765 0 
629 1 -11.7644 -16.7281 0 
630 1 -11.2207 -15.7259 0 
631 1 -10.6343 -16.6792 0 
632 1 -10.0916 -15.6739 0 
633 1 -9.5052 -16.6283 0 
634 1 -8.96308 -15.6217 0 
635 1 -8.3777 -16.5774 0 
637 1 -7.25121 -16.5269 0 
639 1 -6.12547 -16.4756 0 
641 1 -4.99997 -16.4265 0 
643 1 -3.8753 -16.3777 0 
645 1 -2.75135 -16.332 0 
647 1 -1.62771 -16.2863 0 
649 1 -0.503837 -16.2431 0 
651 1 0.6198 -16.2013 0 
653 1 1.74311 -16.162 0 
655 1 2.86543 -16.1253 0 
657 1 3.98726 -16.0909 0 
659 1 5.10979 -16.0584 0 
661 1 6.23332 -16.0282 0 
663 1 7.35745 -16.0012 0 
665 1 8.48143 -15.9753 0 
667 1 9.60486 -15.9517 0 
669 1 10.7287 -15.9293 0 
671 1 11.8532 -15.9091 0 
673 1 12.9788 -15.8902 0 
675 1 14.1049 -15.8733 0 
677 1 15.2307 -15.8573 0 
679 1 16.3561 -15.8422 0 
681 1 17.482 -15.8292 0 
683 1 18.6089 -15.8159 0 
685 1 19.7363 -15.8033 0 
687 1 20.8633 -15.7922 0 
689 1 21.99 -15.7811 0 
691 1 23.1165 -15.7711 0 
693 1 24.2433 -15.7609 0 
695 2 25.3699 -15.7527 0 
697 2 26.4989 -15.7471 0 
699 2 27.6281 -15.742 0 
701 2 -27.6483 -15.3934 0 
703 2 -26.5193 -15.357 0 
705 2 -25.3901 -15.3199 0 
707 2 -24.2607 -15.282 0 
709 1 -23.1294 -15.2422 0 
711 1 -21.9973 -15.2005 0 
713 1 -20.8648 -15.1586 0 
715 1 -19.7333 -15.1161 0 
717 1 -18.6015 -15.0716 0 
719 1 -17.4685 -15.0255 0 
721 1 -16.3363 -14.9774 0 
723 1 -15.2042 -14.9283 0 
725 1 -14.072 -14.8781 0 
727 1 -12.9408 -14.8263 0 
729 1 -11.8095 -14.7751 0 
731 1 -10.6795 -14.7213 0 
733 1 -9.54983 -14.6673 0 
636 1 -7.8352 -15.5699 0 
735 1 -8.42074 -14.6142 0 
638 1 -6.70901 -15.5169 0 
737 1 -7.29386 -14.5591 0 
640 1 -5.58266 -15.4658 0 
739 1 -6.16745 -14.5064 0 
642 1 -4.45769 -15.4152 0 
644 1 -3.33286 -15.3668 0 
646 1 -2.20952 -15.3196 0 
648 1 -1.08603 -15.2745 0 
650 1 0.0375074 -15.2312 0 
652 1 1.1604 -15.1898 0 
654 1 2.28312 -15.1514 0 
656 1 3.40599 -15.116 0 
658 1 4.52897 -15.0827 0 
660 1 5.65305 -15.051 0 
662 1 6.77704 -15.0232 0 
664 1 7.90084 -14.9974 0 
666 1 9.02472 -14.9723 0 
668 1 10.149 -14.9503 0 
670 1 11.2737 -14.9291 0 
672 1 12.3991 -14.9103 0 
674 1 13.5253 -14.8928 0 
676 1 14.6511 -14.8769 0 
678 1 15.7771 -14.8612 0 
680 1 16.9036 -14.8475 0 
682 1 18.0304 -14.8349 0 
684 1 19.1576 -14.8226 0 
686 1 20.285 -14.8108 0 
688 1 21.412 -14.7996 0 
690 1 22.5399 -14.7892 0 
692 1 23.6674 -14.7797 0 
694 1 24.7952 -14.7708 0 
696 2 25.9226 -14.7642 0 
698 2 27.0521 -14.7592 0 
700 2 28.1818 -14.7547 0 
702 2 -27.11 -14.4044 0 
801 2 -27.7009 -13.4516 0 
704 2 -25.9811 -14.3676 0 
803 2 -26.5724 -13.4152 0 
706 2 -24.852 -14.3301 0 
805 2 -25.4437 -13.3781 0 
708 1 -23.721 -14.2911 0 
807 2 -24.3146 -13.3401 0 
710 1 -22.5905 -14.2508 0 
809 1 -23.1837 -13.2999 0 
712 1 -21.4584 -14.2095 0 
714 1 -20.3258 -14.1667 0 
716 1 -19.194 -14.1226 0 
718 1 -18.0616 -14.0778 0 
720 1 -16.9286 -14.0293 0 
722 1 -15.7958 -13.9801 0 
724 1 -14.6632 -13.93 0 
726 1 -13.5312 -13.877 0 
728 1 -12.3991 -13.8254 0 
730 1 -11.2682 -13.771 0 
732 1 -10.1384 -13.7152 0 
734 1 -9.00908 -13.6604 0 
736 1 -7.88105 -13.6034 0 
738 1 -6.75311 -13.5483 0 
740 1 -5.62712 -13.4934 0 
741 1 -5.04235 -14.4535 0 
742 1 -4.50223 -13.4402 0 
743 1 -3.9172 -14.403 0 
744 1 -3.37778 -13.3883 0 
745 1 -2.79273 -14.353 0 
746 1 -2.25314 -13.3389 0 
747 1 -1.66913 -14.3061 0 
749 1 -0.546154 -14.2624 0 
751 1 0.57676 -14.219 0 
753 1 1.6996 -14.1779 0 
755 1 2.82294 -14.1409 0 
757 1 3.94607 -14.1067 0 
759 1 5.06993 -14.0755 0 
761 1 6.19483 -14.0451 0 
763 1 7.31914 -14.0187 0 
765 1 8.4431 -13.9935 0 
767 1 9.56761 -13.9706 0 
769 1 10.6924 -13.9492 0 
771 1 11.8184 -13.9301 0 
773 1 12.9446 -13.9123 0 
775 1 14.0706 -13.8953 0 
777 1 15.1968 -13.8803 0 
779 1 16.3241 -13.8665 0 
781 1 17.4512 -13.8533 0 
783 1 18.5784 -13.8411 0 
785 1 19.7062 -13.8296 0 
787 1 20.8338 -13.8173 0 
789 1 21.9615 -13.808 0 
791 1 23.0899 -13.798 0 
793 1 24.2181 -13.7892 0 
795 2 25.3462 -13.7811 0 
797 2 26.4761 -13.7764 0 
799 2 27.6062 -13.772 0 
802 2 -27.164 -12.4626 0 
804 2 -26.0357 -12.4259 0 
806 2 -24.9071 -12.3884 0 
808 1 -23.7772 -12.3491 0 
810 1 -22.6461 -12.3093 0 
811 1 -22.0525 -13.2597 0 
812 1 -21.5146 -12.2677 0 
813 1 -20.9206 -13.2179 0 
814 1 -20.3828 -12.2254 0 
815 1 -19.788 -13.1737 0 
816 1 -19.2496 -12.1806 0 
817 1 -18.6551 -13.1287 0 
818 1 -18.1167 -12.1339 0 
819 1 -17.5226 -13.0823 0 
821 1 -16.3888 -13.0329 0 
823 1 -15.2557 -12.9831 0 
825 1 -14.1232 -12.9302 0 
827 1 -12.9901 -12.8767 0 
829 1 -11.8591 -12.8221 0 
831 1 -10.7283 -12.7653 0 
833 1 -9.59776 -12.7081 0 
835 1 -8.47008 -12.6501 0 
837 1 -7.34148 -12.5933 0 
839 1 -6.21379 -12.5361 0 
841 1 -5.08723 -12.4799 0 
843 1 -3.96226 -12.4247 0 
845 1 -2.83845 -12.3727 0 
748 1 -1.12919 -13.2924 0 
847 1 -1.71473 -12.324 0 
849 1 -0.591062 -12.2772 0 
750 1 -0.00630993 -13.2487 0 
851 1 0.532121 -12.2335 0 
752 1 1.11656 -13.2054 0 
853 1 1.65563 -12.192 0 
754 1 2.2397 -13.1665 0 
756 1 3.36424 -13.1305 0 
758 1 4.48867 -13.0986 0 
760 1 5.61263 -13.0681 0 
762 1 6.7372 -13.0398 0 
764 1 7.86193 -13.0146 0 
766 1 8.98742 -12.9907 0 
768 1 10.1122 -12.9689 0 
770 1 11.2378 -12.9496 0 
772 1 12.3639 -12.9316 0 
774 1 13.4907 -12.9147 0 
776 1 14.6176 -12.8988 0 
778 1 15.7451 -12.8852 0 
780 1 16.8729 -12.8722 0 
782 1 18.0002 -12.8592 0 
784 1 19.1283 -12.8478 0 
786 1 20.2568 -12.8364 0 
788 1 21.3856 -12.8256 0 
790 1 22.5134 -12.8165 0 
792 1 23.6422 -12.8072 0 
794 1 24.7711 -12.799 0 
796 2 25.9 -12.7934 0 
798 2 27.0306 -12.7893 0 
800 2 28.1612 -12.7854 0 
901 2 -27.7557 -11.5099 0 
903 2 -26.6279 -11.4735 0 
905 2 -25.4997 -11.4364 0 
907 2 -24.3713 -11.3985 0 
909 1 -23.2403 -11.3592 0 
911 1 -22.109 -11.3183 0 
913 1 -20.9774 -11.2762 0 
915 1 -19.8455 -11.2338 0 
917 1 -18.7127 -11.1875 0 
820 1 -16.9837 -12.0868 0 
919 1 -17.5789 -11.1402 0 
822 1 -15.8499 -12.0366 0 
921 1 -16.4455 -11.091 0 
824 1 -14.7171 -11.9842 0 
923 1 -15.3124 -11.0383 0 
826 1 -13.5841 -11.9307 0 
828 1 -12.4521 -11.8741 0 
830 1 -11.3207 -11.817 0 
832 1 -10.1893 -11.7589 0 
834 1 -9.05983 -11.6982 0 
836 1 -7.93078 -11.6407 0 
838 1 -6.80301 -11.5808 0 
840 1 -5.67601 -11.5221 0 
842 1 -4.55005 -11.4642 0 
844 1 -3.42456 -11.4079 0 
846 1 -2.30044 -11.3565 0 
848 1 -1.17711 -11.307 0 
850 1 -0.0538859 -11.2614 0 
852 1 1.06966 -11.219 0 
855 1 2.77938 -12.1556 0 
854 1 2.19371 -11.18 0 
857 1 3.90393 -12.1215 0 
856 1 3.3183 -11.1452 0 
859 1 5.02812 -12.0906 0 
858 1 4.44356 -11.1125 0 
861 1 6.15332 -12.0611 0 
860 1 5.5693 -11.0835 0 
863 1 7.27849 -12.0345 0 
862 1 6.69567 -11.0549 0 
865 1 8.40457 -12.0114 0 
864 1 7.82231 -11.0312 0 
867 1 9.5309 -11.9883 0 
869 1 10.657 -11.9689 0 
871 1 11.7836 -11.9504 0 
873 1 12.9103 -11.934 0 
875 1 14.0374 -11.9181 0 
877 1 15.1654 -11.9037 0 
879 1 16.2931 -11.8905 0 
881 1 17.4211 -11.8776 0 
883 1 18.5497 -11.8661 0 
885 1 19.6785 -11.8553 0 
887 1 20.8074 -11.8446 0 
889 1 21.9366 -11.8341 0 
891 1 23.0652 -11.8255 0 
893 1 24.1946 -11.8173 0 
895 2 25.3239 -11.8103 0 
897 2 26.4549 -11.8064 0 
899 2 27.586 -11.8028 0 
902 2 -27.2202 -10.5209 0 
904 2 -26.0925 -10.4842 0 
906 2 -24.9646 -10.4468 0 
908 1 -23.8352 -10.4086 0 
910 1 -22.7049 -10.3695 0 
912 1 -21.5735 -10.3282 0 
914 1 -20.4412 -10.286 0 
916 1 -19.3097 -10.2418 0 
918 1 -18.1763 -10.1954 0 
920 1 -17.043 -10.146 0 
922 1 -15.9103 -10.0941 0 
924 1 -14.777 -10.0401 0 
925 1 -14.1794 -10.9849 0 
926 1 -13.6446 -9.98353 0 
927 1 -13.0473 -10.9283 0 
928 1 -12.5121 -9.92515 0 
929 1 -11.915 -10.8699 0 
930 1 -11.379 -9.86557 0 
931 1 -10.783 -10.8112 0 
933 1 -9.65278 -10.7496 0 
935 1 -8.52176 -10.6896 0 
937 1 -7.39266 -10.6274 0 
939 1 -6.26435 -10.5656 0 
941 1 -5.13771 -10.5042 0 
943 1 -4.01292 -10.4457 0 
945 1 -2.88815 -10.3906 0 
947 1 -1.76419 -10.3387 0 
949 1 -0.640642 -10.2894 0 
951 1 0.483179 -10.2456 0 
953 1 1.60776 -10.205 0 
955 1 2.73296 -10.1686 0 
957 1 3.85828 -10.1351 0 
959 1 4.98452 -10.1047 0 
961 1 6.11043 -10.0763 0 
963 1 7.2378 -10.051 0 
965 1 8.36473 -10.0288 0 
866 1 8.94854 -11.0089 0 
967 1 9.49273 -10.0075 0 
868 1 10.0755 -10.988 0 
969 1 10.6215 -9.98819 0 
870 1 11.2027 -10.97 0 
971 1 11.7499 -9.97177 0 
872 1 12.3307 -10.9525 0 
973 1 12.8785 -9.95568 0 
874 1 13.4584 -10.937 0 
975 1 14.0068 -9.94095 0 
876 1 14.5864 -10.9222 0 
977 1 15.1357 -9.92641 0 
878 1 15.7144 -10.908 0 
979 1 16.2647 -9.91303 0 
880 1 16.8431 -10.8959 0 
981 1 17.394 -9.90212 0 
882 1 17.9724 -10.8845 0 
983 1 18.5235 -9.89123 0 
884 1 19.1018 -10.8733 0 
985 1 19.6535 -9.88067 0 
886 1 20.2307 -10.8627 0 
987 1 20.7834 -9.87093 0 
888 1 21.3599 -10.8528 0 
890 1 22.4902 -10.8432 0 
989 1 21.9138 -9.86154 0 
892 1 23.6199 -10.8358 0 
991 1 23.0445 -9.85336 0 
894 1 24.7497 -10.829 0 
993 1 24.1746 -9.84705 0 
896 2 25.8793 -10.8234 0 
995 2 25.3037 -9.84035 0 
898 2 27.0108 -10.8201 0 
997 2 26.4357 -9.83726 0 
900 2 28.1423 -10.817 0 
999 2 27.5677 -9.8344 0 
1001 2 -27.8125 -9.56805 0 
1003 2 -26.6854 -9.5318 0 
1005 2 -25.5581 -9.49477 0 
1007 2 -24.4305 -9.45693 0 
1009 1 -23.3006 -9.41875 0 
1011 1 -22.1707 -9.37961 0 
1013 1 -21.039 -9.33863 0 
1015 1 -19.9068 -9.29434 0 
1017 1 -18.7746 -9.25 0 
1019 1 -17.6425 -9.20183 0 
1021 1 -16.5098 -9.15016 0 
1023 1 -15.3768 -9.09694 0 
1025 1 -14.2439 -9.04069 0 
1027 1 -13.1105 -8.98214 0 
1029 1 -11.9769 -8.92206 0 
932 1 -10.2473 -9.80293 0 
1031 1 -10.8447 -8.85878 0 
934 1 -9.1156 -9.74085 0 
1033 1 -9.71223 -8.79468 0 
936 1 -7.98543 -9.6765 0 
1035 1 -8.58105 -8.72814 0 
938 1 -6.85676 -9.61223 0 
940 1 -5.72978 -9.54813 0 
942 1 -4.6037 -9.48467 0 
944 1 -3.47853 -9.4259 0 
946 1 -2.35469 -9.37121 0 
948 1 -1.23102 -9.31935 0 
950 1 -0.106911 -9.27238 0 
952 1 1.01801 -9.23043 0 
954 1 2.14358 -9.19217 0 
956 1 3.26916 -9.15756 0 
958 1 4.39607 -9.12657 0 
960 1 5.52323 -9.0974 0 
962 1 6.65109 -9.07183 0 
964 1 7.77986 -9.04786 0 
966 1 8.90837 -9.02729 0 
968 1 10.0372 -9.00697 0 
970 1 11.167 -8.98931 0 
972 1 12.2966 -8.97456 0 
974 1 13.4257 -8.95898 0 
976 1 14.555 -8.94512 0 
978 1 15.6848 -8.93128 0 
980 1 16.815 -8.91901 0 
982 1 17.9448 -8.90869 0 
984 1 19.0752 -8.89855 0 
986 1 20.2058 -8.88896 0 
988 1 21.3365 -8.87988 0 
990 1 22.4679 -8.87155 0 
992 1 23.5988 -8.86435 0 
994 1 24.7294 -8.85865 0 
996 2 25.8608 -8.85435 0 
998 2 26.9933 -8.85174 0 
1000 2 28.1257 -8.84931 0 
1002 2 -27.2783 -8.57905 0 
1101 2 -27.8711 -7.62598 0 
1004 2 -26.1516 -8.54247 0 
1103 2 -26.7449 -7.58983 0 
1006 2 -25.0246 -8.50509 0 
1105 2 -25.6186 -7.5529 0 
1008 1 -23.896 -8.46741 0 
1107 2 -24.492 -7.51516 0 
1010 1 -22.7666 -8.42865 0 
1012 1 -21.637 -8.38951 0 
1014 1 -20.5062 -8.34764 0 
1016 1 -19.3739 -8.30292 0 
1018 1 -18.2426 -8.25624 0 
1020 1 -17.111 -8.20694 0 
1022 1 -15.978 -8.15408 0 
1024 1 -14.8456 -8.09831 0 
1026 1 -13.7126 -8.04098 0 
1028 1 -12.5788 -7.98045 0 
1030 1 -11.4455 -7.91696 0 
1032 1 -10.3114 -7.85159 0 
1034 1 -9.17898 -7.78305 0 
1036 1 -8.04719 -7.71356 0 
1037 1 -7.45056 -8.66164 0 
1038 1 -6.91673 -7.64374 0 
1039 1 -6.32147 -8.59429 0 
1041 1 -5.19572 -8.52732 0 
1043 1 -4.07076 -8.46366 0 
1045 1 -2.94644 -8.4038 0 
1047 1 -1.82248 -8.34949 0 
1049 1 -0.698169 -8.29928 0 
1051 1 0.42653 -8.25573 0 
1053 1 1.55256 -8.21635 0 
1055 1 2.68013 -8.17982 0 
1057 1 3.80836 -8.14868 0 
1059 1 4.93688 -8.11859 0 
1061 1 6.06648 -8.0923 0 
1063 1 7.19583 -8.06864 0 
1065 1 8.32584 -8.04626 0 
1067 1 9.4555 -8.02587 0 
1069 1 10.5861 -8.00752 0 
1071 1 11.7164 -7.9918 0 
1073 1 12.8467 -7.97771 0 
1075 1 13.9773 -7.9628 0 
1077 1 15.108 -7.94948 0 
1079 1 16.2391 -7.93737 0 
1081 1 17.3695 -7.92579 0 
1083 1 18.4995 -7.91599 0 
1085 1 19.63 -7.90669 0 
1087 1 20.7611 -7.89783 0 
1089 1 21.8925 -7.88982 0 
1091 1 23.0237 -7.88219 0 
1093 1 24.155 -7.87625 0 
1095 2 25.2861 -7.87134 0 
1097 2 26.419 -7.86899 0 
1099 2 27.5519 -7.8668 0 
1102 2 -27.3381 -6.63684 0 
1104 2 -26.2124 -6.60035 0 
1106 2 -25.0865 -6.56307 0 
1108 1 -23.9597 -6.52615 0 
1109 1 -23.3638 -7.47801 0 
1110 1 -22.8321 -6.48911 0 
1111 1 -22.2349 -7.43928 0 
1112 1 -21.7038 -6.45019 0 
1113 1 -21.1054 -7.3994 0 
1114 1 -20.5748 -6.4092 0 
1115 1 -19.9751 -7.35693 0 
1116 1 -19.4454 -6.3653 0 
1117 1 -18.844 -7.31029 0 
1119 1 -17.7129 -7.26219 0 
1121 1 -16.5816 -7.21208 0 
1123 1 -15.4497 -7.15648 0 
1125 1 -14.3165 -7.09956 0 
1127 1 -13.1829 -7.04027 0 
1129 1 -12.0489 -6.97631 0 
1131 1 -10.9149 -6.91144 0 
1133 1 -9.78109 -6.84192 0 
1135 1 -8.64795 -6.77002 0 
1137 1 -7.51584 -6.69657 0 
1139 1 -6.3861 -6.62151 0 
1040 1 -5.78835 -7.57243 0 
1141 1 -5.25852 -6.5476 0 
1042 1 -4.66206 -7.50372 0 
1143 1 -4.13321 -6.47492 0 
1044 1 -3.53833 -7.43769 0 
1046 1 -2.4151 -7.37909 0 
1048 1 -1.29132 -7.32709 0 
1050 1 -0.165994 -7.28002 0 
1052 1 0.960441 -7.24035 0 
1054 1 2.08773 -7.20331 0 
1056 1 3.2169 -7.17008 0 
1058 1 4.34661 -7.13984 0 
1060 1 5.47762 -7.11351 0 
1062 1 6.60855 -7.08904 0 
1064 1 7.73991 -7.06623 0 
1066 1 8.87101 -7.04422 0 
1068 1 10.0027 -7.02654 0 
1070 1 11.1342 -7.00903 0 
1072 1 12.2658 -6.99516 0 
1074 1 13.3969 -6.981 0 
1076 1 14.5287 -6.96746 0 
1078 1 15.6605 -6.95556 0 
1080 1 16.7917 -6.94369 0 
1082 1 17.9228 -6.93347 0 
1084 1 19.054 -6.92346 0 
1086 1 20.1856 -6.91502 0 
1088 1 21.3175 -6.9074 0 
1090 1 22.4491 -6.89997 0 
1092 1 23.581 -6.89416 0 
1094 1 24.7128 -6.88903 0 
1096 2 25.8451 -6.88616 0 
1098 2 26.9784 -6.88422 0 
1100 2 28.1116 -6.88241 0 
1201 2 -27.9311 -5.68349 0 
1203 2 -26.806 -5.64742 0 
1205 2 -25.6808 -5.61059 0 