ITEM: TIMESTEP
4700
ITEM: NUMBER OF ATOMS
2850
ITEM: BOX BOUNDS ff ff pp
-42.092 42.092
-42.092 42.092
-0.280613 0.280613
ITEM: ATOMS id type xu yu zu 
1 2 -27.3398 -28.9988 0 
3 2 -26.2107 -28.9642 0 
5 2 -25.0816 -28.9291 0 
7 2 -23.9525 -28.8936 0 
9 2 -22.8235 -28.8577 0 
11 2 -21.6944 -28.8213 0 
13 2 -20.5655 -28.7844 0 
15 2 -19.4366 -28.7472 0 
17 2 -18.3079 -28.7095 0 
19 2 -17.1793 -28.6715 0 
21 2 -16.0508 -28.6331 0 
23 2 -14.9226 -28.5944 0 
25 2 -13.7947 -28.5554 0 
27 2 -12.667 -28.5163 0 
29 2 -11.5396 -28.477 0 
31 2 -10.4126 -28.4376 0 
33 2 -9.28592 -28.3982 0 
35 2 -8.15967 -28.3589 0 
37 2 -7.03386 -28.3198 0 
39 2 -5.90848 -28.281 0 
2 2 -26.7941 -28.0086 0 
4 2 -25.6649 -27.9736 0 
6 2 -24.5357 -27.9381 0 
8 2 -23.4065 -27.902 0 
10 2 -22.2773 -27.8656 0 
12 2 -21.1481 -27.8286 0 
14 2 -20.019 -27.7912 0 
16 2 -18.89 -27.7533 0 
18 2 -17.7611 -27.715 0 
20 2 -16.6324 -27.6763 0 
22 2 -15.5039 -27.6373 0 
24 2 -14.3755 -27.5979 0 
26 2 -13.2475 -27.5582 0 
28 2 -12.1197 -27.5183 0 
30 2 -10.9923 -27.4783 0 
32 2 -9.86522 -27.4382 0 
34 2 -8.73856 -27.3981 0 
36 2 -7.61233 -27.3581 0 
38 2 -6.48656 -27.3184 0 
40 2 -5.36126 -27.2789 0 
41 2 -4.78357 -28.2426 0 
42 2 -4.23645 -27.24 0 
43 2 -3.65912 -28.2046 0 
44 2 -3.11213 -27.2015 0 
45 2 -2.53513 -28.1673 0 
46 2 -1.98828 -27.1638 0 
47 2 -1.41159 -28.1307 0 
48 2 -0.8649 -27.1269 0 
49 2 -0.288464 -28.095 0 
51 2 0.834263 -28.0602 0 
53 2 1.95663 -28.0264 0 
55 2 3.07869 -27.9937 0 
57 2 4.20048 -27.9622 0 
59 2 5.32207 -27.9319 0 
61 2 6.4435 -27.9029 0 
63 2 7.56483 -27.8752 0 
65 2 8.68613 -27.8488 0 
67 2 9.80743 -27.8237 0 
69 2 10.9288 -27.8 0 
71 2 12.0503 -27.7775 0 
73 2 13.1719 -27.7563 0 
75 2 14.2937 -27.7363 0 
77 2 15.4157 -27.7174 0 
79 2 16.538 -27.6997 0 
81 2 17.6605 -27.683 0 
83 2 18.7832 -27.6673 0 
85 2 19.9063 -27.6526 0 
87 2 21.0296 -27.6388 0 
89 2 22.1532 -27.6258 0 
91 2 23.2771 -27.6136 0 
93 2 24.4012 -27.6022 0 
95 2 25.5256 -27.5914 0 
97 2 26.6503 -27.5812 0 
99 2 27.7752 -27.5717 0 
101 2 -27.378 -27.0533 0 
103 2 -26.2487 -27.0183 0 
102 2 -26.833 -26.0633 0 
105 2 -25.1194 -26.9828 0 
104 2 -25.7037 -26.0278 0 
107 2 -23.9901 -26.9468 0 
106 2 -24.5742 -25.9918 0 
109 2 -22.8607 -26.9102 0 
108 1 -23.4444 -25.955 0 
111 2 -21.7314 -26.8732 0 
113 2 -20.6021 -26.8357 0 
115 2 -19.4729 -26.7977 0 
117 2 -18.3437 -26.7591 0 
119 2 -17.2147 -26.7202 0 
121 2 -16.0858 -26.6808 0 
123 2 -14.9572 -26.641 0 
125 2 -13.8287 -26.6009 0 
127 2 -12.7006 -26.5605 0 
129 2 -11.5727 -26.5198 0 
131 2 -10.4452 -26.479 0 
133 2 -9.31813 -26.4382 0 
135 2 -8.19146 -26.3973 0 
137 2 -7.06526 -26.3566 0 
139 2 -5.93954 -26.3162 0 
141 2 -4.81433 -26.2762 0 
143 2 -3.68963 -26.2366 0 
145 2 -2.56545 -26.1977 0 
147 2 -1.44177 -26.1596 0 
50 2 0.258046 -27.0909 0 
149 2 -0.318563 -26.1224 0 
52 2 1.38059 -27.056 0 
151 2 0.804196 -26.0862 0 
54 2 2.50279 -27.0222 0 
153 2 1.92656 -26.0512 0 
56 2 3.62468 -26.9896 0 
155 2 3.04857 -26.0174 0 
58 2 4.74633 -26.9582 0 
157 2 4.1703 -25.9849 0 
60 2 5.86779 -26.9282 0 
159 2 5.2918 -25.9538 0 
62 2 6.98913 -26.8996 0 
64 2 8.11041 -26.8723 0 
66 2 9.23169 -26.8465 0 
68 2 10.353 -26.822 0 
70 2 11.4745 -26.7989 0 
72 2 12.596 -26.7771 0 
74 2 13.7178 -26.7566 0 
76 2 14.8398 -26.7373 0 
78 2 15.962 -26.7192 0 
80 2 17.0845 -26.7023 0 
82 2 18.2073 -26.6863 0 
84 2 19.3304 -26.6714 0 
86 2 20.4538 -26.6575 0 
88 2 21.5774 -26.6444 0 
90 2 22.7014 -26.6321 0 
92 2 23.8256 -26.6206 0 
94 2 24.9501 -26.6098 0 
96 2 26.0749 -26.5996 0 
98 2 27.2 -26.5901 0 
100 2 28.3253 -26.5811 0 
201 2 -27.4179 -25.1085 0 
203 2 -26.2885 -25.0731 0 
205 2 -25.159 -25.0372 0 
207 2 -24.0295 -25.0007 0 
209 1 -22.8992 -24.9627 0 
110 1 -22.3147 -25.9175 0 
211 1 -21.7692 -24.9244 0 
112 1 -21.1851 -25.8797 0 
213 1 -20.6394 -24.8858 0 
114 1 -20.0556 -25.8414 0 
215 1 -19.5097 -24.8466 0 
116 1 -18.9262 -25.8025 0 
217 1 -18.3802 -24.8069 0 
118 1 -17.797 -25.7632 0 
120 1 -16.668 -25.7234 0 
122 1 -15.5393 -25.6831 0 
124 1 -14.4108 -25.6425 0 
126 1 -13.2824 -25.6017 0 
128 1 -12.1543 -25.5604 0 
130 1 -11.0268 -25.519 0 
132 1 -9.89965 -25.4776 0 
134 1 -8.77303 -25.4359 0 
136 1 -7.64682 -25.3944 0 
138 1 -6.52104 -25.3532 0 
140 1 -5.39585 -25.3122 0 
142 1 -4.27112 -25.2717 0 
144 1 -3.14678 -25.2318 0 
146 1 -2.02296 -25.1926 0 
148 1 -0.899652 -25.1544 0 
150 1 0.223303 -25.1171 0 
152 1 1.34591 -25.0811 0 
154 1 2.46814 -25.0462 0 
156 1 3.59011 -25.0127 0 
158 1 4.71188 -24.9807 0 
160 1 5.83356 -24.9503 0 
161 2 6.41316 -25.9242 0 
162 1 6.95522 -24.9213 0 
163 2 7.53443 -25.896 0 
164 1 8.07685 -24.8939 0 
165 2 8.65568 -25.8693 0 
167 2 9.77697 -25.844 0 
166 1 9.19848 -24.8678 0 
169 2 10.8984 -25.8202 0 
168 1 10.3203 -24.8435 0 
171 2 12.0199 -25.7978 0 
170 1 11.4422 -24.8205 0 
173 2 13.1416 -25.7768 0 
175 2 14.2636 -25.7571 0 
177 2 15.3858 -25.7386 0 
179 2 16.5083 -25.7213 0 
181 2 17.6311 -25.7052 0 
183 2 18.7543 -25.6901 0 
185 2 19.8777 -25.6759 0 
187 2 21.0014 -25.6627 0 
189 2 22.1254 -25.6504 0 
191 2 23.2498 -25.6388 0 
193 2 24.3744 -25.628 0 
195 2 25.4993 -25.6179 0 
197 2 26.6245 -25.6084 0 
199 2 27.75 -25.5994 0 
202 2 -26.8739 -24.1187 0 
204 2 -25.7444 -24.0828 0 
206 2 -24.6148 -24.0464 0 
208 1 -23.4844 -24.0087 0 
210 1 -22.3542 -23.97 0 
212 1 -21.224 -23.9309 0 
214 1 -20.0941 -23.8914 0 
216 1 -18.9643 -23.8513 0 
219 1 -17.2509 -24.7668 0 
218 1 -17.8347 -23.8108 0 
221 1 -16.122 -24.726 0 
220 1 -16.7055 -23.7697 0 
222 1 -15.5764 -23.7281 0 
223 1 -14.9933 -24.6849 0 
224 1 -14.4477 -23.6861 0 
225 1 -13.8648 -24.6436 0 
227 1 -12.7367 -24.6018 0 
229 1 -11.6089 -24.5597 0 
231 1 -10.4816 -24.5176 0 
233 1 -9.3548 -24.4751 0 
235 1 -8.22844 -24.4328 0 
237 1 -7.10257 -24.3907 0 
239 1 -5.97723 -24.3488 0 
241 1 -4.85239 -24.3073 0 
243 1 -3.72801 -24.2663 0 
245 1 -2.60414 -24.2261 0 
247 1 -1.48065 -24.1868 0 
249 1 -0.357517 -24.1485 0 
251 1 0.765264 -24.1113 0 
253 1 1.88766 -24.0755 0 
255 1 3.00981 -24.041 0 
257 1 4.13187 -24.0079 0 
259 1 5.25389 -23.9766 0 
261 1 6.37585 -23.9469 0 
263 1 7.49766 -23.9186 0 
265 1 8.61959 -23.8919 0 
267 1 9.74172 -23.8668 0 
269 1 10.864 -23.8433 0 
271 1 11.9864 -23.8211 0 
172 1 12.5643 -24.7989 0 
273 1 13.1091 -23.8004 0 
174 1 13.6867 -24.7787 0 
275 1 14.2319 -23.7809 0 
176 1 14.8093 -24.7597 0 
277 1 15.355 -23.7627 0 
178 1 15.9321 -24.742 0 
279 1 16.4784 -23.7458 0 
180 1 17.0551 -24.7255 0 
281 1 17.6019 -23.7301 0 
182 1 18.1785 -24.7101 0 
283 1 18.7257 -23.7153 0 
184 1 19.3021 -24.6956 0 
285 1 19.8498 -23.7015 0 
186 1 20.4259 -24.6822 0 
287 1 20.974 -23.6887 0 
188 1 21.55 -24.6695 0 
289 1 22.0985 -23.6766 0 
190 1 22.6743 -24.6577 0 
291 1 23.2232 -23.6653 0 
192 1 23.799 -24.6466 0 
293 1 24.3481 -23.6546 0 
194 1 24.9239 -24.6363 0 
295 2 25.4729 -23.6443 0 
196 2 26.0488 -24.6264 0 
198 2 27.1745 -24.6176 0 
200 2 28.3003 -24.6093 0 
301 2 -27.4598 -23.1644 0 
303 2 -26.3303 -23.1287 0 
305 2 -25.2007 -23.0924 0 
307 2 -24.071 -23.0555 0 
309 1 -22.9402 -23.0162 0 
311 1 -21.8096 -22.9768 0 
313 1 -20.6794 -22.9368 0 
315 1 -19.5493 -22.8965 0 
317 1 -18.4194 -22.8556 0 
319 1 -17.2897 -22.8141 0 
321 1 -16.1604 -22.772 0 
323 1 -15.0314 -22.7296 0 
226 1 -13.3194 -23.6439 0 
325 1 -13.9028 -22.6866 0 
327 1 -12.7746 -22.6434 0 
228 1 -12.1914 -23.6012 0 
329 1 -11.6467 -22.5998 0 
230 1 -11.0639 -23.5583 0 
331 1 -10.5194 -22.5559 0 
232 1 -9.9369 -23.5151 0 
333 1 -9.39261 -22.5118 0 
234 1 -8.81035 -23.4719 0 
236 1 -7.68418 -23.4289 0 
238 1 -6.55868 -23.386 0 
240 1 -5.43367 -23.3434 0 
242 1 -4.30911 -23.3014 0 
244 1 -3.18508 -23.26 0 
246 1 -2.06147 -23.2197 0 
248 1 -0.938219 -23.1803 0 
250 1 0.184594 -23.1419 0 
252 1 1.30715 -23.105 0 
254 1 2.42951 -23.0696 0 
256 1 3.55176 -23.0355 0 
258 1 4.67399 -23.0031 0 
260 1 5.79614 -22.9725 0 
262 1 6.91824 -22.9435 0 
264 1 8.04038 -22.9161 0 
266 1 9.1627 -22.8902 0 
268 1 10.2853 -22.8661 0 
270 1 11.408 -22.8434 0 
272 1 12.5309 -22.8221 0 
274 1 13.654 -22.8021 0 
276 1 14.7773 -22.7835 0 
278 1 15.901 -22.7662 0 
280 1 17.0249 -22.7501 0 
282 1 18.149 -22.735 0 
284 1 19.2733 -22.7209 0 
286 1 20.3978 -22.7078 0 
288 1 21.5224 -22.6955 0 
290 1 22.6471 -22.6839 0 
292 1 23.7722 -22.6731 0 
294 1 24.8974 -22.6627 0 
297 2 26.5987 -23.6355 0 
296 2 26.0228 -22.6533 0 
299 2 27.7248 -23.6273 0 
298 2 27.149 -22.6452 0 
300 2 28.2755 -22.6376 0 
302 2 -26.9167 -22.1747 0 
304 2 -25.7871 -22.1385 0 
306 2 -24.6574 -22.1018 0 
308 1 -23.5268 -22.0633 0 
310 1 -22.3961 -22.0234 0 
312 1 -21.2654 -21.9831 0 
314 1 -20.1351 -21.9424 0 
316 1 -19.0049 -21.9011 0 
318 1 -17.875 -21.8592 0 
320 1 -16.7453 -21.8168 0 
322 1 -15.616 -21.7738 0 
324 1 -14.487 -21.7304 0 
326 1 -13.3583 -21.6865 0 
328 1 -12.2301 -21.6422 0 
330 1 -11.1024 -21.5976 0 
332 1 -9.97521 -21.5526 0 
334 1 -8.84855 -21.5078 0 
335 1 -8.26623 -22.4679 0 
336 1 -7.72245 -21.4628 0 
337 1 -7.14045 -22.4239 0 
338 1 -6.59692 -21.418 0 
339 1 -6.01524 -22.3803 0 
340 1 -5.47192 -21.3737 0 
341 1 -4.89048 -22.3372 0 
343 1 -3.7662 -22.2947 0 
345 1 -2.64237 -22.2531 0 
347 1 -1.51902 -22.2125 0 
349 1 -0.396045 -22.173 0 
351 1 0.726634 -22.1349 0 
353 1 1.84919 -22.0983 0 
355 1 2.97157 -22.0633 0 
357 1 4.09389 -22.0299 0 
359 1 5.21622 -21.9983 0 
361 1 6.33851 -21.9685 0 
363 1 7.4609 -21.9403 0 
365 1 8.58343 -21.9138 0 
367 1 9.70621 -21.8889 0 
369 1 10.8291 -21.8658 0 
371 1 11.9523 -21.844 0 
373 1 13.0758 -21.8234 0 
375 1 14.1994 -21.8043 0 
377 1 15.3233 -21.7867 0 
379 1 16.4474 -21.7701 0 
381 1 17.5716 -21.7547 0 
383 1 18.6962 -21.7403 0 
385 1 19.8209 -21.7269 0 
387 1 20.9457 -21.7143 0 
389 1 22.0708 -21.7025 0 
391 1 23.1959 -21.6915 0 
393 1 24.3212 -21.681 0 
395 2 25.4466 -21.6709 0 
397 2 26.573 -21.6629 0 
399 2 27.6998 -21.6554 0 
401 2 -27.5037 -21.2208 0 
403 2 -26.3741 -21.1849 0 
402 2 -26.9617 -20.2313 0 
405 2 -25.2445 -21.1483 0 
404 2 -25.8321 -20.1949 0 
407 2 -24.1147 -21.111 0 
409 1 -22.9835 -21.0708 0 
411 1 -21.8526 -21.0301 0 
413 1 -20.7218 -20.989 0 
415 1 -19.5914 -20.9474 0 
417 1 -18.4612 -20.9052 0 
419 1 -17.3311 -20.8624 0 
421 1 -16.2013 -20.8189 0 
423 1 -15.0719 -20.7749 0 
425 1 -13.9429 -20.7307 0 
427 1 -12.8142 -20.6856 0 
429 1 -11.6861 -20.6401 0 
431 1 -10.5586 -20.5944 0 
433 1 -9.43143 -20.5485 0 
435 1 -8.305 -20.5026 0 
437 1 -7.17911 -20.4567 0 
439 1 -6.05385 -20.4112 0 
342 1 -4.34752 -21.33 0 
441 1 -4.9292 -20.3662 0 
344 1 -3.22356 -21.2872 0 
443 1 -3.80497 -20.322 0 
346 1 -2.10007 -21.2453 0 
445 1 -2.68121 -20.2788 0 
348 1 -0.976913 -21.2047 0 
447 1 -1.55783 -20.2369 0 
350 1 0.145925 -21.1653 0 
352 1 1.26863 -21.1276 0 
354 1 2.39117 -21.0913 0 
356 1 3.51366 -21.0569 0 
358 1 4.63605 -21.0244 0 
360 1 5.75857 -20.9936 0 
362 1 6.88116 -20.9645 0 
364 1 8.00396 -20.9373 0 
366 1 9.1269 -20.9118 0 
368 1 10.2501 -20.8879 0 
370 1 11.3735 -20.8658 0 
372 1 12.4971 -20.8449 0 
374 1 13.621 -20.8253 0 
376 1 14.7451 -20.807 0 
378 1 15.8695 -20.7902 0 
380 1 16.9941 -20.7744 0 
382 1 18.1188 -20.7597 0 
384 1 19.2438 -20.746 0 
386 1 20.3688 -20.7332 0 
388 1 21.4941 -20.7212 0 
390 1 22.6195 -20.7099 0 
392 1 23.745 -20.6994 0 
394 1 24.8708 -20.6892 0 
396 2 25.9969 -20.6804 0 
398 2 27.1238 -20.673 0 
400 2 28.251 -20.6661 0 
501 2 -27.5497 -19.2779 0 
503 2 -26.4202 -19.2417 0 
505 2 -25.2906 -19.2049 0 
406 2 -24.7023 -20.1579 0 
507 2 -24.1608 -19.1673 0 
408 1 -23.5715 -20.1188 0 
509 1 -23.0294 -19.1262 0 
410 1 -22.4405 -20.0779 0 
511 1 -21.8982 -19.0846 0 
412 1 -21.3096 -20.0364 0 
513 1 -20.7671 -19.0423 0 
414 1 -20.1788 -19.9945 0 
416 1 -19.0482 -19.952 0 
418 1 -17.9178 -19.9088 0 
420 1 -16.7876 -19.865 0 
422 1 -15.6577 -19.8205 0 
424 1 -14.5282 -19.7755 0 
426 1 -13.3991 -19.73 0 
428 1 -12.2705 -19.6837 0 
430 1 -11.1425 -19.6372 0 
432 1 -10.0149 -19.5904 0 
434 1 -8.88802 -19.5433 0 
436 1 -7.76168 -19.4964 0 
438 1 -6.63607 -19.4497 0 
440 1 -5.51112 -19.4032 0 
442 1 -4.38667 -19.3577 0 
444 1 -3.26273 -19.3131 0 
446 1 -2.1391 -19.2697 0 
448 1 -1.01595 -19.2277 0 
449 1 -0.434869 -20.1962 0 
450 1 0.106946 -19.1872 0 
451 1 0.687866 -20.1572 0 
452 1 1.22963 -19.1484 0 
453 1 1.81048 -20.1197 0 
454 1 2.35234 -19.1116 0 
455 1 2.93306 -20.0842 0 
456 1 3.47494 -19.0769 0 
457 1 4.05567 -20.0505 0 
459 1 5.17829 -20.0189 0 
461 1 6.301 -19.9889 0 
463 1 7.42397 -19.9609 0 
465 1 8.54718 -19.9346 0 
467 1 9.67059 -19.9101 0 
469 1 10.7943 -19.8875 0 
471 1 11.9182 -19.8661 0 
473 1 13.0422 -19.846 0 
475 1 14.1665 -19.8275 0 
477 1 15.2912 -19.8101 0 
479 1 16.416 -19.794 0 
481 1 17.5409 -19.7791 0 
483 1 18.6662 -19.7651 0 
485 1 19.7916 -19.752 0 
487 1 20.9172 -19.7398 0 
489 1 22.0429 -19.7284 0 
491 1 23.1687 -19.7177 0 
493 1 24.2946 -19.7076 0 
495 2 25.4205 -19.6978 0 
497 2 26.5477 -19.6905 0 
499 2 27.6751 -19.6838 0 
502 2 -27.0088 -18.2886 0 
504 2 -25.8793 -18.252 0 
506 2 -24.7497 -18.2147 0 
508 1 -23.6187 -18.175 0 
510 1 -22.4876 -18.1333 0 
512 1 -21.3563 -18.0909 0 
514 1 -20.2251 -18.0479 0 
515 1 -19.6361 -18.9996 0 
516 1 -19.0941 -18.0041 0 
517 1 -18.5053 -18.956 0 
518 1 -17.9632 -17.9596 0 
519 1 -17.3749 -18.9119 0 
520 1 -16.8326 -17.9145 0 
521 1 -16.2446 -18.8671 0 
523 1 -15.1146 -18.8215 0 
525 1 -13.9851 -18.7754 0 
527 1 -12.856 -18.7285 0 
529 1 -11.7274 -18.6811 0 
531 1 -10.5994 -18.6334 0 
533 1 -9.47189 -18.5853 0 
535 1 -8.34504 -18.5372 0 
537 1 -7.21897 -18.4891 0 
539 1 -6.09363 -18.4414 0 
541 1 -4.96884 -18.3943 0 
543 1 -3.84466 -18.3483 0 
545 1 -2.7209 -18.3034 0 
547 1 -1.59741 -18.2597 0 
549 1 -0.474349 -18.2178 0 
551 1 0.6484 -18.1775 0 
553 1 1.77121 -18.1394 0 
555 1 2.89397 -18.1033 0 
557 1 4.01679 -18.0696 0 
458 1 4.59769 -19.0442 0 
559 1 5.13979 -18.0379 0 
460 1 5.72056 -19.0134 0 
561 1 6.26303 -18.0082 0 
462 1 6.84375 -18.9845 0 
563 1 7.38661 -17.9804 0 
464 1 7.9671 -18.9575 0 
565 1 8.51044 -17.9545 0 
466 1 9.09074 -18.9323 0 
567 1 9.63457 -17.9306 0 
468 1 10.2146 -18.909 0 
569 1 10.7588 -17.9083 0 
470 1 11.3387 -18.8873 0 
472 1 12.4629 -18.8667 0 
474 1 13.5875 -18.8478 0 
476 1 14.7124 -18.8301 0 
478 1 15.8375 -18.8136 0 
480 1 16.9627 -18.7984 0 
482 1 18.0881 -18.7841 0 
484 1 19.2138 -18.7709 0 
486 1 20.3397 -18.7585 0 
488 1 21.4657 -18.7469 0 
490 1 22.5919 -18.736 0 
492 1 23.7182 -18.7258 0 
494 1 24.8446 -18.7161 0 
496 2 25.9714 -18.7078 0 
498 2 27.0991 -18.7012 0 
500 2 28.2271 -18.6951 0 
601 2 -27.5979 -17.3354 0 
603 2 -26.4686 -17.2992 0 
605 2 -25.3391 -17.2621 0 
607 2 -24.2094 -17.2244 0 
609 1 -23.0778 -17.1825 0 
611 1 -21.9465 -17.1401 0 
613 1 -20.8151 -17.097 0 
615 1 -19.6838 -17.053 0 
617 1 -18.5526 -17.0082 0 
619 1 -17.4215 -16.9628 0 
522 1 -15.7022 -17.8686 0 
621 1 -16.2907 -16.9165 0 
524 1 -14.572 -17.8218 0 
623 1 -15.1601 -16.8694 0 
526 1 -13.4424 -17.7744 0 
625 1 -14.0299 -16.8213 0 
528 1 -12.3133 -17.7262 0 
627 1 -12.9001 -16.7725 0 
530 1 -11.1846 -17.6776 0 
532 1 -10.0566 -17.6285 0 
534 1 -8.92921 -17.5792 0 
536 1 -7.80263 -17.5297 0 
538 1 -6.67678 -17.4807 0 
540 1 -5.55154 -17.4321 0 
542 1 -4.42697 -17.3843 0 
544 1 -3.3029 -17.3378 0 
546 1 -2.17936 -17.2926 0 
548 1 -1.05609 -17.2489 0 
550 1 0.0668255 -17.2071 0 
552 1 1.18964 -17.1676 0 
554 1 2.31248 -17.1302 0 
556 1 3.43548 -17.0951 0 
558 1 4.55861 -17.0625 0 
560 1 5.68196 -17.0318 0 
562 1 6.80567 -17.0033 0 
564 1 7.92969 -16.9767 0 
566 1 9.05402 -16.9521 0 
568 1 10.1785 -16.9292 0 
571 1 11.8833 -17.8875 0 
570 1 11.3033 -16.908 0 
573 1 13.0082 -17.868 0 
572 1 12.4284 -16.8883 0 
575 1 14.1333 -17.85 0 
574 1 13.5537 -16.8698 0 
577 1 15.2586 -17.8332 0 
576 1 14.6793 -16.8526 0 
579 1 16.3842 -17.8176 0 
578 1 15.8053 -16.8367 0 
581 1 17.5099 -17.8031 0 
580 1 16.9314 -16.822 0 
583 1 18.6359 -17.7896 0 
582 1 18.0576 -16.8083 0 
585 1 19.7621 -17.7771 0 
584 1 19.1841 -16.7957 0 
587 1 20.8884 -17.7654 0 
586 1 20.3108 -16.7838 0 
589 1 22.0148 -17.7544 0 
588 1 21.4377 -16.7727 0 
591 1 23.1415 -17.744 0 
590 1 22.5646 -16.7623 0 
593 1 24.2682 -17.7343 0 
592 1 23.6917 -16.7525 0 
595 2 25.3948 -17.725 0 
594 1 24.819 -16.7433 0 
596 2 25.9465 -16.7357 0 
597 2 26.5229 -17.7186 0 
598 2 27.0751 -16.7299 0 
599 2 27.6512 -17.7126 0 
600 2 28.2039 -16.7246 0 
602 2 -27.0583 -16.3463 0 
604 2 -25.929 -16.3096 0 
606 2 -24.7995 -16.2721 0 
608 1 -23.6687 -16.2321 0 
610 1 -22.5373 -16.1896 0 
612 1 -21.4059 -16.1466 0 
614 1 -20.2746 -16.1025 0 
616 1 -19.1431 -16.0577 0 
618 1 -18.0116 -16.012 0 
620 1 -16.8804 -15.9654 0 
622 1 -15.7494 -15.918 0 
624 1 -14.6187 -15.8694 0 
626 1 -13.4884 -15.8201 0 
628 1 -12.3585 -15.7699 0 
629 1 -11.7709 -16.7231 0 
630 1 -11.2293 -15.7189 0 
631 1 -10.6423 -16.673 0 
632 1 -10.1006 -15.6673 0 
633 1 -9.51435 -16.6226 0 
634 1 -8.97279 -15.6152 0 
635 1 -8.38716 -16.5717 0 
637 1 -7.26066 -16.5211 0 
639 1 -6.1349 -16.471 0 
641 1 -5.00987 -16.4214 0 
643 1 -3.88552 -16.3732 0 
645 1 -2.7618 -16.326 0 
647 1 -1.63848 -16.2808 0 
649 1 -0.515373 -16.2372 0 
651 1 0.607603 -16.196 0 
653 1 1.73051 -16.1574 0 
655 1 2.85364 -16.1209 0 
657 1 3.97703 -16.087 0 
659 1 5.10049 -16.0554 0 
661 1 6.22429 -16.0261 0 
663 1 7.3485 -15.9987 0 
665 1 8.47294 -15.9735 0 
667 1 9.59767 -15.9501 0 
669 1 10.7228 -15.9283 0 
671 1 11.8483 -15.9082 0 
673 1 12.9739 -15.8894 0 
675 1 14.0998 -15.8719 0 
677 1 15.226 -15.8558 0 
679 1 16.3524 -15.8409 0 
681 1 17.479 -15.8269 0 
683 1 18.6059 -15.8141 0 
685 1 19.7329 -15.8022 0 
687 1 20.86 -15.791 0 
689 1 21.9873 -15.7806 0 
691 1 23.1148 -15.7707 0 
693 1 24.2424 -15.7616 0 
695 2 25.3699 -15.7527 0 
697 2 26.4989 -15.7471 0 
699 2 27.6281 -15.742 0 
701 2 -27.6483 -15.3934 0 
703 2 -26.5193 -15.357 0 
705 2 -25.3901 -15.3199 0 
707 2 -24.2607 -15.282 0 
709 1 -23.1292 -15.2397 0 
711 1 -21.9976 -15.1966 0 
713 1 -20.8662 -15.1527 0 
715 1 -19.7347 -15.1079 0 
717 1 -18.603 -15.0621 0 
719 1 -17.4714 -15.0153 0 
721 1 -16.34 -14.9677 0 
723 1 -15.2088 -14.9187 0 
725 1 -14.0778 -14.8688 0 
727 1 -12.9473 -14.818 0 
729 1 -11.8174 -14.7662 0 
731 1 -10.6881 -14.7136 0 
733 1 -9.55948 -14.6603 0 
636 1 -7.84561 -15.5631 0 
735 1 -8.43159 -14.6066 0 
638 1 -6.71919 -15.5113 0 
737 1 -7.30449 -14.5532 0 
640 1 -5.5937 -15.46 0 
739 1 -6.17834 -14.4999 0 
642 1 -4.46888 -15.4096 0 
644 1 -3.34494 -15.3606 0 
646 1 -2.22138 -15.3132 0 
648 1 -1.09819 -15.268 0 
650 1 0.024967 -15.2251 0 
652 1 1.14813 -15.1847 0 
654 1 2.27127 -15.147 0 
656 1 3.39475 -15.1118 0 
658 1 4.51846 -15.0791 0 
660 1 5.64248 -15.0488 0 
662 1 6.76685 -15.0207 0 
664 1 7.89156 -14.9947 0 
666 1 9.01659 -14.9708 0 
668 1 10.142 -14.9487 0 
670 1 11.2677 -14.928 0 
672 1 12.3937 -14.9089 0 
674 1 13.5199 -14.8912 0 
676 1 14.6465 -14.8747 0 
678 1 15.7733 -14.8596 0 
680 1 16.9002 -14.8456 0 
682 1 18.0274 -14.8325 0 
684 1 19.1548 -14.8204 0 
686 1 20.2824 -14.8092 0 
688 1 21.4101 -14.7988 0 
690 1 22.5379 -14.789 0 
692 1 23.666 -14.7798 0 
694 1 24.7942 -14.771 0 
696 2 25.9226 -14.7642 0 
698 2 27.0521 -14.7592 0 
700 2 28.1818 -14.7547 0 
702 2 -27.11 -14.4044 0 
801 2 -27.7009 -13.4516 0 
704 2 -25.9811 -14.3676 0 
803 2 -26.5724 -13.4152 0 
706 2 -24.852 -14.3301 0 
805 2 -25.4437 -13.3781 0 
708 1 -23.7213 -14.2899 0 
807 2 -24.3146 -13.3401 0 
710 1 -22.5901 -14.247 0 
809 1 -23.1834 -13.2976 0 
712 1 -21.4588 -14.2033 0 
714 1 -20.3273 -14.1587 0 
716 1 -19.1955 -14.113 0 
718 1 -18.0636 -14.0661 0 
720 1 -16.9318 -14.0183 0 
722 1 -15.8003 -13.9692 0 
724 1 -14.6688 -13.9188 0 
726 1 -13.5376 -13.8674 0 
728 1 -12.4069 -13.8148 0 
730 1 -11.2768 -13.7614 0 
732 1 -10.1475 -13.707 0 
734 1 -9.01895 -13.652 0 
736 1 -7.89114 -13.5967 0 
738 1 -6.76431 -13.5416 0 
740 1 -5.63835 -13.4871 0 
741 1 -5.05303 -14.4476 0 
742 1 -4.51332 -13.4334 0 
743 1 -3.92859 -14.3962 0 
744 1 -3.38898 -13.3816 0 
745 1 -2.80471 -14.3468 0 
746 1 -2.26538 -13.3319 0 
747 1 -1.68127 -14.2994 0 
749 1 -0.558095 -14.2546 0 
751 1 0.565109 -14.2126 0 
753 1 1.68838 -14.1731 0 
755 1 2.81188 -14.1367 0 
757 1 3.93571 -14.1028 0 
759 1 5.05995 -14.0715 0 
761 1 6.18456 -14.0427 0 
763 1 7.30951 -14.016 0 
765 1 8.43491 -13.9914 0 
767 1 9.56069 -13.9688 0 
769 1 10.6867 -13.9478 0 
771 1 11.8131 -13.9283 0 
773 1 12.9398 -13.9103 0 
775 1 14.0667 -13.8937 0 
777 1 15.1938 -13.8782 0 
779 1 16.3212 -13.864 0 
781 1 17.4488 -13.8509 0 
783 1 18.5766 -13.8387 0 
785 1 19.7046 -13.8274 0 
787 1 20.8327 -13.8169 0 
789 1 21.9608 -13.807 0 
791 1 23.0892 -13.798 0 
793 1 24.2177 -13.7894 0 
795 2 25.3462 -13.7811 0 
797 2 26.4761 -13.7764 0 
799 2 27.6062 -13.772 0 
802 2 -27.164 -12.4626 0 
804 2 -26.0357 -12.4259 0 
806 2 -24.9071 -12.3884 0 
808 1 -23.7768 -12.3481 0 
810 1 -22.646 -12.3051 0 
811 1 -22.0521 -13.2541 0 
812 1 -21.5149 -12.2612 0 
813 1 -20.9207 -13.2098 0 
814 1 -20.3833 -12.2162 0 
815 1 -19.789 -13.1644 0 
816 1 -19.2515 -12.1698 0 
817 1 -18.657 -13.1178 0 
818 1 -18.1195 -12.1222 0 
819 1 -17.525 -13.0699 0 
821 1 -16.3931 -13.0207 0 
823 1 -15.2612 -12.9701 0 
825 1 -14.1295 -12.9183 0 
827 1 -12.9981 -12.8651 0 
829 1 -11.8673 -12.8108 0 
831 1 -10.737 -12.7553 0 
833 1 -9.60762 -12.6991 0 
835 1 -8.47911 -12.6423 0 
837 1 -7.3514 -12.5851 0 
839 1 -6.22465 -12.5283 0 
841 1 -5.09903 -12.4723 0 
843 1 -3.97422 -12.4178 0 
845 1 -2.85023 -12.3653 0 
748 1 -1.14197 -13.2848 0 
847 1 -1.72666 -12.3159 0 
849 1 -0.603216 -12.2694 0 
750 1 -0.0187267 -13.2407 0 
851 1 0.520286 -12.2265 0 
752 1 1.10463 -13.1996 0 
853 1 1.64397 -12.1868 0 
754 1 2.22827 -13.1616 0 
756 1 3.35227 -13.1266 0 
758 1 4.47678 -13.0943 0 
760 1 5.60164 -13.0646 0 
762 1 6.72682 -13.0371 0 
764 1 7.85258 -13.012 0 
766 1 8.97872 -12.9888 0 
768 1 10.1052 -12.9674 0 
770 1 11.232 -12.9477 0 
772 1 12.3592 -12.9293 0 
774 1 13.4866 -12.9124 0 
776 1 14.6142 -12.8967 0 
778 1 15.742 -12.8824 0 
780 1 16.8701 -12.8691 0 
782 1 17.9982 -12.8569 0 
784 1 19.1267 -12.8455 0 
786 1 20.2552 -12.8349 0 
788 1 21.3838 -12.825 0 
790 1 22.5125 -12.8161 0 
792 1 23.6415 -12.8076 0 
794 1 24.7706 -12.7995 0 
796 2 25.9 -12.7934 0 
798 2 27.0306 -12.7893 0 
800 2 28.1612 -12.7854 0 
901 2 -27.7557 -11.5099 0 
903 2 -26.6279 -11.4735 0 
905 2 -25.4997 -11.4364 0 
907 2 -24.3713 -11.3985 0 
909 1 -23.2406 -11.356 0 
911 1 -22.1097 -11.3125 0 
913 1 -20.9786 -11.2682 0 
915 1 -19.847 -11.2224 0 
917 1 -18.7151 -11.175 0 
820 1 -16.9873 -12.0731 0 
919 1 -17.583 -11.1263 0 
822 1 -15.8551 -12.0226 0 
921 1 -16.4507 -11.076 0 
824 1 -14.723 -11.9707 0 
923 1 -15.3182 -11.0241 0 
826 1 -13.591 -11.917 0 
828 1 -12.4594 -11.8619 0 
830 1 -11.3283 -11.8056 0 
832 1 -10.1979 -11.748 0 
834 1 -9.0684 -11.6896 0 
836 1 -7.93992 -11.6307 0 
838 1 -6.81241 -11.5716 0 
840 1 -5.68607 -11.513 0 
842 1 -4.56065 -11.4557 0 
844 1 -3.43622 -11.4003 0 
846 1 -2.31243 -11.3479 0 
848 1 -1.18891 -11.2989 0 
850 1 -0.0652518 -11.2537 0 
852 1 1.05858 -11.2122 0 
855 1 2.76804 -12.1504 0 
854 1 2.18287 -11.1742 0 
857 1 3.89274 -12.1171 0 
856 1 3.30772 -11.1398 0 
859 1 5.01791 -12.0864 0 
858 1 4.43318 -11.1081 0 
861 1 6.14349 -12.0582 0 
860 1 5.5592 -11.0792 0 
863 1 7.26962 -12.0325 0 
862 1 6.68589 -11.0528 0 
865 1 8.39614 -12.0088 0 
864 1 7.81299 -11.0285 0 
867 1 9.5231 -11.987 0 
869 1 10.6504 -11.9667 0 
871 1 11.778 -11.9482 0 
873 1 12.906 -11.931 0 
875 1 14.0341 -11.9151 0 
877 1 15.1624 -11.9006 0 
879 1 16.2909 -11.8872 0 
881 1 17.4196 -11.8749 0 
883 1 18.5485 -11.8635 0 
885 1 19.6775 -11.8528 0 
887 1 20.8066 -11.843 0 
889 1 21.9358 -11.834 0 
891 1 23.0651 -11.8258 0 
893 1 24.1945 -11.8177 0 
895 2 25.3239 -11.8103 0 
897 2 26.4549 -11.8064 0 
899 2 27.586 -11.8028 0 
902 2 -27.2202 -10.5209 0 
904 2 -26.0925 -10.4842 0 
906 2 -24.9646 -10.4468 0 
908 1 -23.8352 -10.4067 0 
910 1 -22.705 -10.3639 0 
912 1 -21.5742 -10.32 0 
914 1 -20.4432 -10.275 0 
916 1 -19.3118 -10.2283 0 
918 1 -18.1799 -10.1801 0 
920 1 -17.0477 -10.1302 0 
922 1 -15.9151 -10.0784 0 
924 1 -14.7824 -10.0249 0 
925 1 -14.1858 -10.9703 0 
926 1 -13.6498 -9.9693 0 
927 1 -13.0536 -10.9148 0 
928 1 -12.5172 -9.91174 0 
929 1 -11.9216 -10.8577 0 
930 1 -11.385 -9.85237 0 
931 1 -10.7903 -10.7991 0 
933 1 -9.65968 -10.7393 0 
935 1 -8.53015 -10.6785 0 
937 1 -7.40173 -10.6173 0 
939 1 -6.2745 -10.556 0 
941 1 -5.14837 -10.4957 0 
943 1 -4.02338 -10.4369 0 
945 1 -2.89912 -10.3812 0 
947 1 -1.77541 -10.3291 0 
949 1 -0.651697 -10.2813 0 
951 1 0.472313 -10.2377 0 
953 1 1.59681 -10.1982 0 
955 1 2.72196 -10.1623 0 
957 1 3.84775 -10.1299 0 
959 1 4.97426 -10.1001 0 
961 1 6.1014 -10.0731 0 
963 1 7.22905 -10.0483 0 
965 1 8.35726 -10.0256 0 
866 1 8.94047 -11.0064 0 
967 1 9.48568 -10.0048 0 
868 1 10.0683 -10.9858 0 
969 1 10.6144 -9.98555 0 
870 1 11.1965 -10.9669 0 
971 1 11.7435 -9.96787 0 
872 1 12.325 -10.9496 0 
973 1 12.8728 -9.95164 0 
874 1 13.4536 -10.9335 0 
975 1 14.0024 -9.93688 0 
876 1 14.5825 -10.9188 0 
977 1 15.132 -9.92303 0 
878 1 15.7116 -10.9052 0 
979 1 16.2618 -9.91046 0 
880 1 16.8408 -10.8927 0 
981 1 17.3918 -9.89898 0 
882 1 17.9701 -10.8813 0 
983 1 18.5219 -9.88843 0 
884 1 19.0996 -10.8707 0 
985 1 19.652 -9.87872 0 
886 1 20.2293 -10.8609 0 
987 1 20.7823 -9.86975 0 
888 1 21.359 -10.8519 0 
890 1 22.4888 -10.8436 0 
989 1 21.9126 -9.86147 0 
892 1 23.6187 -10.836 0 
991 1 23.0429 -9.85401 0 
894 1 24.7488 -10.8287 0 
993 1 24.1733 -9.84704 0 
896 2 25.8793 -10.8234 0 
995 2 25.3037 -9.84035 0 
898 2 27.0108 -10.8201 0 
997 2 26.4357 -9.83726 0 
900 2 28.1423 -10.817 0 
999 2 27.5677 -9.8344 0 
1001 2 -27.8125 -9.56805 0 
1003 2 -26.6854 -9.5318 0 
1005 2 -25.5581 -9.49477 0 
1007 2 -24.4305 -9.45693 0 
1009 1 -23.3008 -9.41497 0 
1011 1 -22.1706 -9.37188 0 
1013 1 -21.04 -9.32746 0 
1015 1 -19.9091 -9.28153 0 
1017 1 -18.7777 -9.23412 0 
1019 1 -17.6458 -9.18479 0 
1021 1 -16.5135 -9.1336 0 
1023 1 -15.3809 -9.08042 0 
1025 1 -14.2481 -9.02513 0 
1027 1 -13.1152 -8.96766 0 
1029 1 -11.9822 -8.90776 0 
932 1 -10.2533 -9.7914 0 
1031 1 -10.8496 -8.84589 0 
934 1 -9.12254 -9.72882 0 
1033 1 -9.71769 -8.7819 0 
936 1 -7.9929 -9.66536 0 
1035 1 -8.58671 -8.71647 0 
938 1 -6.86463 -9.60148 0 
940 1 -5.73762 -9.53798 0 
942 1 -4.61196 -9.47568 0 
944 1 -3.48733 -9.41609 0 
946 1 -2.36335 -9.36031 0 
948 1 -1.23947 -9.30936 0 
950 1 -0.115301 -9.26347 0 
952 1 1.00944 -9.22213 0 
954 1 2.1349 -9.18478 0 
956 1 3.26119 -9.15128 0 
958 1 4.38818 -9.1209 0 
960 1 5.51596 -9.09324 0 
962 1 6.64427 -9.06792 0 
964 1 7.77316 -9.04487 0 
966 1 8.90243 -9.02369 0 
968 1 10.0319 -9.00414 0 
970 1 11.1617 -8.98618 0 
972 1 12.2917 -8.96975 0 
974 1 13.422 -8.95474 0 
976 1 14.5523 -8.94086 0 
978 1 15.6827 -8.92804 0 
980 1 16.8134 -8.91667 0 
982 1 17.944 -8.90601 0 
984 1 19.0747 -8.89631 0 
986 1 20.2055 -8.88743 0 
988 1 21.3364 -8.8792 0 
990 1 22.4673 -8.87183 0 
992 1 23.5983 -8.8652 0 
994 1 24.7294 -8.85881 0 
996 2 25.8608 -8.85435 0 
998 2 26.9933 -8.85174 0 
1000 2 28.1257 -8.84931 0 
1002 2 -27.2783 -8.57905 0 
1101 2 -27.8711 -7.62598 0 
1004 2 -26.1516 -8.54247 0 
1103 2 -26.7449 -7.58983 0 
1006 2 -25.0246 -8.50509 0 
1105 2 -25.6186 -7.5529 0 
1008 1 -23.8962 -8.46535 0 
1107 2 -24.492 -7.51516 0 
1010 1 -22.7671 -8.42331 0 
1012 1 -21.6374 -8.37975 0 
1014 1 -20.5072 -8.33469 0 
1016 1 -19.3764 -8.28803 0 
1018 1 -18.2451 -8.2397 0 
1020 1 -17.1133 -8.18916 0 
1022 1 -15.981 -8.13671 0 
1024 1 -14.8484 -8.08198 0 
1026 1 -13.7154 -8.02489 0 
1028 1 -12.5821 -7.96523 0 
1030 1 -11.4487 -7.9028 0 
1032 1 -10.3157 -7.83774 0 
1034 1 -9.18334 -7.77064 0 
1036 1 -8.05209 -7.7017 0 
1037 1 -7.45698 -8.64986 0 
1038 1 -6.9223 -7.63157 0 
1039 1 -6.32875 -8.58307 0 
1041 1 -5.20217 -8.51698 0 
1043 1 -4.07698 -8.45306 0 
1045 1 -2.95272 -8.39305 0 
1047 1 -1.82871 -8.33833 0 
1049 1 -0.704371 -8.28944 0 
1051 1 0.420631 -8.24598 0 
1053 1 1.54642 -8.20719 0 
1055 1 2.67329 -8.17259 0 
1057 1 3.80099 -8.14143 0 
1059 1 4.92953 -8.11332 0 
1061 1 6.05868 -8.08754 0 
1063 1 7.18838 -8.06401 0 
1065 1 8.31852 -8.04254 0 
1067 1 9.44895 -8.02269 0 
1069 1 10.5796 -8.00447 0 
1071 1 11.7104 -7.98783 0 
1073 1 12.8414 -7.97253 0 
1075 1 13.9725 -7.95853 0 
1077 1 15.1036 -7.9457 0 
1079 1 16.2348 -7.93413 0 
1081 1 17.366 -7.92355 0 
1083 1 18.4974 -7.91377 0 
1085 1 19.6288 -7.90489 0 
1087 1 20.7602 -7.89683 0 
1089 1 21.8917 -7.88951 0 
1091 1 23.0232 -7.88295 0 
1093 1 24.1547 -7.87698 0 
1095 2 25.2861 -7.87134 0 
1097 2 26.419 -7.86899 0 
1099 2 27.5519 -7.8668 0 
1102 2 -27.3381 -6.63684 0 
1104 2 -26.2124 -6.60035 0 
1106 2 -25.0865 -6.56307 0 
1108 1 -23.9595 -6.52397 0 
1109 1 -23.3635 -7.47398 0 
1110 1 -22.8318 -6.48257 0 
1111 1 -22.2348 -7.43157 0 
1112 1 -21.7035 -6.43966 0 
1113 1 -21.1054 -7.38747 0 
1114 1 -20.5747 -6.39514 0 
1115 1 -19.9755 -7.34185 0 
1116 1 -19.4454 -6.34873 0 
1117 1 -18.8451 -7.29438 0 
1119 1 -17.7141 -7.24497 0 
1121 1 -16.5825 -7.19328 0 
1123 1 -15.4504 -7.13946 0 
1125 1 -14.3178 -7.0831 0 
1127 1 -13.1846 -7.02401 0 
1129 1 -12.051 -6.96192 0 
1131 1 -10.9172 -6.89651 0 
1133 1 -9.78352 -6.82819 0 
1135 1 -8.65057 -6.75721 0 
1137 1 -7.51902 -6.68408 0 
1139 1 -6.38952 -6.60965 0 
1040 1 -5.79445 -7.56139 0 
1141 1 -5.26222 -6.53568 0 
1042 1 -4.66837 -7.49263 0 
1143 1 -4.13683 -6.46451 0 
1044 1 -3.54372 -7.42755 0 
1046 1 -2.41958 -7.36824 0 
1048 1 -1.29516 -7.31579 0 
1050 1 -0.169895 -7.26986 0 
1052 1 0.956434 -7.2294 0 
1054 1 2.08396 -7.19376 0 
1056 1 3.21258 -7.16181 0 
1058 1 4.34202 -7.13314 0 
1060 1 5.47211 -7.10704 0 
1062 1 6.60281 -7.08313 0 
1064 1 7.73398 -7.06135 0 
1066 1 8.86538 -7.04129 0 
1068 1 9.99702 -7.02278 0 
1070 1 11.1288 -7.00589 0 
1072 1 12.2606 -6.99038 0 
1074 1 13.3925 -6.97621 0 
1076 1 14.5245 -6.96328 0 
1078 1 15.6564 -6.95149 0 
1080 1 16.7883 -6.9408 0 
1082 1 17.9202 -6.93117 0 
1084 1 19.0523 -6.92238 0 
1086 1 20.1842 -6.91421 0 
1088 1 21.3162 -6.90713 0 
1090 1 22.4483 -6.90058 0 
1092 1 23.5804 -6.89482 0 
1094 1 24.7126 -6.88968 0 
1096 2 25.8451 -6.88616 0 
1098 2 26.9784 -6.88422 0 
1100 2 28.1116 -6.88241 0 
1201 2 -27.9311 -5.68349 0 
1203 2 -26.806 -5.64742 0 
1205 2 -25.6808 -5.61059 0 