ITEM: TIMESTEP
4100
ITEM: NUMBER OF ATOMS
2850
ITEM: BOX BOUNDS ff ff pp
-42.092 42.092
-42.092 42.092
-0.280613 0.280613
ITEM: ATOMS id type xu yu zu 
1 2 -27.3398 -28.9988 0 
3 2 -26.2107 -28.9642 0 
5 2 -25.0816 -28.9291 0 
7 2 -23.9525 -28.8936 0 
9 2 -22.8235 -28.8577 0 
11 2 -21.6944 -28.8213 0 
13 2 -20.5655 -28.7844 0 
15 2 -19.4366 -28.7472 0 
17 2 -18.3079 -28.7095 0 
19 2 -17.1793 -28.6715 0 
21 2 -16.0508 -28.6331 0 
23 2 -14.9226 -28.5944 0 
25 2 -13.7947 -28.5554 0 
27 2 -12.667 -28.5163 0 
29 2 -11.5396 -28.477 0 
31 2 -10.4126 -28.4376 0 
33 2 -9.28592 -28.3982 0 
35 2 -8.15967 -28.3589 0 
37 2 -7.03386 -28.3198 0 
39 2 -5.90848 -28.281 0 
2 2 -26.7941 -28.0086 0 
4 2 -25.6649 -27.9736 0 
6 2 -24.5357 -27.9381 0 
8 2 -23.4065 -27.902 0 
10 2 -22.2773 -27.8656 0 
12 2 -21.1481 -27.8286 0 
14 2 -20.019 -27.7912 0 
16 2 -18.89 -27.7533 0 
18 2 -17.7611 -27.715 0 
20 2 -16.6324 -27.6763 0 
22 2 -15.5039 -27.6373 0 
24 2 -14.3755 -27.5979 0 
26 2 -13.2475 -27.5582 0 
28 2 -12.1197 -27.5183 0 
30 2 -10.9923 -27.4783 0 
32 2 -9.86522 -27.4382 0 
34 2 -8.73856 -27.3981 0 
36 2 -7.61233 -27.3581 0 
38 2 -6.48656 -27.3184 0 
40 2 -5.36126 -27.2789 0 
41 2 -4.78357 -28.2426 0 
42 2 -4.23645 -27.24 0 
43 2 -3.65912 -28.2046 0 
44 2 -3.11213 -27.2015 0 
45 2 -2.53513 -28.1673 0 
46 2 -1.98828 -27.1638 0 
47 2 -1.41159 -28.1307 0 
48 2 -0.8649 -27.1269 0 
49 2 -0.288464 -28.095 0 
51 2 0.834263 -28.0602 0 
53 2 1.95663 -28.0264 0 
55 2 3.07869 -27.9937 0 
57 2 4.20048 -27.9622 0 
59 2 5.32207 -27.9319 0 
61 2 6.4435 -27.9029 0 
63 2 7.56483 -27.8752 0 
65 2 8.68613 -27.8488 0 
67 2 9.80743 -27.8237 0 
69 2 10.9288 -27.8 0 
71 2 12.0503 -27.7775 0 
73 2 13.1719 -27.7563 0 
75 2 14.2937 -27.7363 0 
77 2 15.4157 -27.7174 0 
79 2 16.538 -27.6997 0 
81 2 17.6605 -27.683 0 
83 2 18.7832 -27.6673 0 
85 2 19.9063 -27.6526 0 
87 2 21.0296 -27.6388 0 
89 2 22.1532 -27.6258 0 
91 2 23.2771 -27.6136 0 
93 2 24.4012 -27.6022 0 
95 2 25.5256 -27.5914 0 
97 2 26.6503 -27.5812 0 
99 2 27.7752 -27.5717 0 
101 2 -27.378 -27.0533 0 
103 2 -26.2487 -27.0183 0 
102 2 -26.833 -26.0633 0 
105 2 -25.1194 -26.9828 0 
104 2 -25.7037 -26.0278 0 
107 2 -23.9901 -26.9468 0 
106 2 -24.5742 -25.9918 0 
109 2 -22.8607 -26.9102 0 
108 1 -23.4445 -25.9551 0 
111 2 -21.7314 -26.8732 0 
113 2 -20.6021 -26.8357 0 
115 2 -19.4729 -26.7977 0 
117 2 -18.3437 -26.7591 0 
119 2 -17.2147 -26.7202 0 
121 2 -16.0858 -26.6808 0 
123 2 -14.9572 -26.641 0 
125 2 -13.8287 -26.6009 0 
127 2 -12.7006 -26.5605 0 
129 2 -11.5727 -26.5198 0 
131 2 -10.4452 -26.479 0 
133 2 -9.31813 -26.4382 0 
135 2 -8.19146 -26.3973 0 
137 2 -7.06526 -26.3566 0 
139 2 -5.93954 -26.3162 0 
141 2 -4.81433 -26.2762 0 
143 2 -3.68963 -26.2366 0 
145 2 -2.56545 -26.1977 0 
147 2 -1.44177 -26.1596 0 
50 2 0.258046 -27.0909 0 
149 2 -0.318563 -26.1224 0 
52 2 1.38059 -27.056 0 
151 2 0.804196 -26.0862 0 
54 2 2.50279 -27.0222 0 
153 2 1.92656 -26.0512 0 
56 2 3.62468 -26.9896 0 
155 2 3.04857 -26.0174 0 
58 2 4.74633 -26.9582 0 
157 2 4.1703 -25.9849 0 
60 2 5.86779 -26.9282 0 
159 2 5.2918 -25.9538 0 
62 2 6.98913 -26.8996 0 
64 2 8.11041 -26.8723 0 
66 2 9.23169 -26.8465 0 
68 2 10.353 -26.822 0 
70 2 11.4745 -26.7989 0 
72 2 12.596 -26.7771 0 
74 2 13.7178 -26.7566 0 
76 2 14.8398 -26.7373 0 
78 2 15.962 -26.7192 0 
80 2 17.0845 -26.7023 0 
82 2 18.2073 -26.6863 0 
84 2 19.3304 -26.6714 0 
86 2 20.4538 -26.6575 0 
88 2 21.5774 -26.6444 0 
90 2 22.7014 -26.6321 0 
92 2 23.8256 -26.6206 0 
94 2 24.9501 -26.6098 0 
96 2 26.0749 -26.5996 0 
98 2 27.2 -26.5901 0 
100 2 28.3253 -26.5811 0 
201 2 -27.4179 -25.1085 0 
203 2 -26.2885 -25.0731 0 
205 2 -25.159 -25.0372 0 
207 2 -24.0295 -25.0007 0 
209 1 -22.8993 -24.9628 0 
110 1 -22.3147 -25.9175 0 
211 1 -21.7692 -24.9246 0 
112 1 -21.185 -25.8797 0 
213 1 -20.6395 -24.8855 0 
114 1 -20.0556 -25.8411 0 
215 1 -19.5099 -24.8463 0 
116 1 -18.9263 -25.8024 0 
217 1 -18.3805 -24.8065 0 
118 1 -17.7973 -25.7631 0 
120 1 -16.6683 -25.7233 0 
122 1 -15.5394 -25.6831 0 
124 1 -14.4108 -25.6424 0 
126 1 -13.2825 -25.6018 0 
128 1 -12.1546 -25.5603 0 
130 1 -11.027 -25.5188 0 
132 1 -9.89969 -25.4772 0 
134 1 -8.77289 -25.4357 0 
136 1 -7.64663 -25.3944 0 
138 1 -6.52085 -25.3528 0 
140 1 -5.39572 -25.3119 0 
142 1 -4.27095 -25.2714 0 
144 1 -3.14669 -25.2317 0 
146 1 -2.02289 -25.1925 0 
148 1 -0.899407 -25.1543 0 
150 1 0.223691 -25.1171 0 
152 1 1.3463 -25.0811 0 
154 1 2.46858 -25.0461 0 
156 1 3.59052 -25.0129 0 
158 1 4.7124 -24.9808 0 
160 1 5.83419 -24.9503 0 
161 2 6.41316 -25.9242 0 
162 1 6.9557 -24.9212 0 
163 2 7.53443 -25.896 0 
164 1 8.07741 -24.8939 0 
165 2 8.65568 -25.8693 0 
167 2 9.77697 -25.844 0 
166 1 9.19898 -24.8679 0 
169 2 10.8984 -25.8202 0 
168 1 10.3207 -24.8434 0 
171 2 12.0199 -25.7978 0 
170 1 11.4427 -24.8203 0 
173 2 13.1416 -25.7768 0 
175 2 14.2636 -25.7571 0 
177 2 15.3858 -25.7386 0 
179 2 16.5083 -25.7213 0 
181 2 17.6311 -25.7052 0 
183 2 18.7543 -25.6901 0 
185 2 19.8777 -25.6759 0 
187 2 21.0014 -25.6627 0 
189 2 22.1254 -25.6504 0 
191 2 23.2498 -25.6388 0 
193 2 24.3744 -25.628 0 
195 2 25.4993 -25.6179 0 
197 2 26.6245 -25.6084 0 
199 2 27.75 -25.5994 0 
202 2 -26.8739 -24.1187 0 
204 2 -25.7444 -24.0828 0 
206 2 -24.6148 -24.0464 0 
208 1 -23.4845 -24.0087 0 
210 1 -22.3543 -23.9701 0 
212 1 -21.2244 -23.9308 0 
214 1 -20.0944 -23.8912 0 
216 1 -18.9648 -23.8509 0 
219 1 -17.2513 -24.7666 0 
218 1 -17.8352 -23.8105 0 
221 1 -16.1222 -24.7258 0 
220 1 -16.7059 -23.7695 0 
222 1 -15.5767 -23.7278 0 
223 1 -14.9933 -24.6847 0 
224 1 -14.448 -23.6859 0 
225 1 -13.8649 -24.6435 0 
227 1 -12.737 -24.6015 0 
229 1 -11.6092 -24.5594 0 
231 1 -10.4817 -24.5173 0 
233 1 -9.35468 -24.4747 0 
235 1 -8.22823 -24.4326 0 
237 1 -7.10239 -24.3904 0 
239 1 -5.97695 -24.3481 0 
241 1 -4.85203 -24.3067 0 
243 1 -3.72756 -24.266 0 
245 1 -2.60375 -24.2259 0 
247 1 -1.48023 -24.1867 0 
249 1 -0.356936 -24.1484 0 
251 1 0.766085 -24.1113 0 
253 1 1.88846 -24.0754 0 
255 1 3.01062 -24.0409 0 
257 1 4.13259 -24.0081 0 
259 1 5.25472 -23.9768 0 
261 1 6.37674 -23.9466 0 
263 1 7.49866 -23.9186 0 
265 1 8.62047 -23.8918 0 
267 1 9.74237 -23.8666 0 
269 1 10.8646 -23.8431 0 
271 1 11.9871 -23.8208 0 
172 1 12.5646 -24.7988 0 
273 1 13.1096 -23.8001 0 
174 1 13.6868 -24.7786 0 
275 1 14.2324 -23.7808 0 
176 1 14.8093 -24.7598 0 
277 1 15.3553 -23.7626 0 
178 1 15.9322 -24.742 0 
279 1 16.4786 -23.7458 0 
180 1 17.0553 -24.7254 0 
281 1 17.6022 -23.73 0 
182 1 18.1786 -24.71 0 
283 1 18.726 -23.715 0 
184 1 19.3021 -24.6955 0 
285 1 19.8499 -23.7013 0 
186 1 20.4258 -24.6821 0 
287 1 20.974 -23.6887 0 
188 1 21.5498 -24.6695 0 
289 1 22.0985 -23.6767 0 
190 1 22.6743 -24.6577 0 
291 1 23.2233 -23.6653 0 
192 1 23.7991 -24.6466 0 
293 1 24.3482 -23.6546 0 
194 1 24.9239 -24.6362 0 
295 2 25.4729 -23.6443 0 
196 2 26.0488 -24.6264 0 
198 2 27.1745 -24.6176 0 
200 2 28.3003 -24.6093 0 
301 2 -27.4598 -23.1644 0 
303 2 -26.3303 -23.1287 0 
305 2 -25.2007 -23.0924 0 
307 2 -24.071 -23.0555 0 
309 1 -22.9402 -23.0163 0 
311 1 -21.8098 -22.9767 0 
313 1 -20.6797 -22.9368 0 
315 1 -19.5497 -22.8961 0 
317 1 -18.4198 -22.8552 0 
319 1 -17.2901 -22.8138 0 
321 1 -16.1609 -22.7717 0 
323 1 -15.0318 -22.7292 0 
226 1 -13.3198 -23.6435 0 
325 1 -13.9031 -22.6862 0 
327 1 -12.7749 -22.6428 0 
228 1 -12.1919 -23.6006 0 
329 1 -11.6469 -22.5993 0 
230 1 -11.0643 -23.558 0 
331 1 -10.5196 -22.5555 0 
232 1 -9.93713 -23.5149 0 
333 1 -9.39287 -22.5115 0 
234 1 -8.81028 -23.4715 0 
236 1 -7.68423 -23.4285 0 
238 1 -6.55873 -23.3854 0 
240 1 -5.43347 -23.3429 0 
242 1 -4.30879 -23.301 0 
244 1 -3.1847 -23.2597 0 
246 1 -2.06112 -23.2195 0 
248 1 -0.937623 -23.1803 0 
250 1 0.185443 -23.142 0 
252 1 1.30814 -23.105 0 
254 1 2.43061 -23.0695 0 
256 1 3.55296 -23.0354 0 
258 1 4.67511 -23.0033 0 
260 1 5.79722 -22.9725 0 
262 1 6.9195 -22.9433 0 
264 1 8.04157 -22.916 0 
266 1 9.16387 -22.8901 0 
268 1 10.2864 -22.8659 0 
270 1 11.409 -22.8431 0 
272 1 12.5318 -22.8216 0 
274 1 13.6548 -22.8018 0 
276 1 14.7779 -22.7831 0 
278 1 15.9015 -22.7659 0 
280 1 17.0253 -22.7499 0 
282 1 18.1494 -22.7346 0 
284 1 19.2736 -22.7206 0 
286 1 20.3979 -22.7077 0 
288 1 21.5224 -22.6956 0 
290 1 22.6472 -22.684 0 
292 1 23.7723 -22.6731 0 
294 1 24.8975 -22.6626 0 
297 2 26.5987 -23.6355 0 
296 2 26.0228 -22.6533 0 
299 2 27.7248 -23.6273 0 
298 2 27.149 -22.6452 0 
300 2 28.2755 -22.6376 0 
302 2 -26.9167 -22.1747 0 
304 2 -25.7871 -22.1385 0 
306 2 -24.6574 -22.1018 0 
308 1 -23.5269 -22.0633 0 
310 1 -22.3963 -22.0234 0 
312 1 -21.2658 -21.9829 0 
314 1 -20.1357 -21.9421 0 
316 1 -19.0055 -21.9009 0 
318 1 -17.8755 -21.859 0 
320 1 -16.7459 -21.8165 0 
322 1 -15.6165 -21.7734 0 
324 1 -14.4876 -21.73 0 
326 1 -13.359 -21.686 0 
328 1 -12.2307 -21.6418 0 
330 1 -11.103 -21.5971 0 
332 1 -9.9758 -21.5521 0 
334 1 -8.849 -21.5072 0 
335 1 -8.26636 -22.4673 0 
336 1 -7.72255 -21.4622 0 
337 1 -7.14036 -22.4234 0 
338 1 -6.59672 -21.4175 0 
339 1 -6.01484 -22.3798 0 
340 1 -5.47155 -21.3733 0 
341 1 -4.89004 -22.3369 0 
343 1 -3.76568 -22.2944 0 
345 1 -2.64171 -22.2528 0 
347 1 -1.51825 -22.2126 0 
349 1 -0.39517 -22.1731 0 
351 1 0.727629 -22.135 0 
353 1 1.85015 -22.0984 0 
355 1 2.97262 -22.0634 0 
357 1 4.09517 -22.0299 0 
359 1 5.21757 -21.9983 0 
361 1 6.3399 -21.9684 0 
363 1 7.46222 -21.9401 0 
365 1 8.58473 -21.9137 0 
367 1 9.70765 -21.8887 0 
369 1 10.8304 -21.8652 0 
371 1 11.9534 -21.8431 0 
373 1 13.0766 -21.8227 0 
375 1 14.2 -21.8037 0 
377 1 15.3239 -21.7861 0 
379 1 16.448 -21.7698 0 
381 1 17.5722 -21.7543 0 
383 1 18.6967 -21.7399 0 
385 1 19.8212 -21.7266 0 
387 1 20.9461 -21.7144 0 
389 1 22.0711 -21.7025 0 
391 1 23.1962 -21.6916 0 
393 1 24.3215 -21.681 0 
395 2 25.4466 -21.6709 0 
397 2 26.573 -21.6629 0 
399 2 27.6998 -21.6554 0 
401 2 -27.5037 -21.2208 0 
403 2 -26.3741 -21.1849 0 
402 2 -26.9617 -20.2313 0 
405 2 -25.2445 -21.1483 0 
404 2 -25.8321 -20.1949 0 
407 2 -24.1147 -21.111 0 
409 1 -22.9836 -21.0707 0 
411 1 -21.8529 -21.0299 0 
413 1 -20.7223 -20.9888 0 
415 1 -19.5918 -20.9471 0 
417 1 -18.4615 -20.905 0 
419 1 -17.3315 -20.8621 0 
421 1 -16.2019 -20.8186 0 
423 1 -15.0724 -20.7745 0 
425 1 -13.9434 -20.73 0 
427 1 -12.8148 -20.6852 0 
429 1 -11.6867 -20.6397 0 
431 1 -10.5591 -20.594 0 
433 1 -9.43183 -20.548 0 
435 1 -8.30522 -20.502 0 
437 1 -7.17911 -20.4562 0 
439 1 -6.05358 -20.4106 0 
342 1 -4.34701 -21.3298 0 
441 1 -4.92864 -20.3657 0 
344 1 -3.22284 -21.2869 0 
443 1 -3.80435 -20.3217 0 
346 1 -2.09912 -21.2451 0 
445 1 -2.68057 -20.2785 0 
348 1 -0.975979 -21.2047 0 
447 1 -1.55695 -20.2367 0 
350 1 0.147027 -21.1655 0 
352 1 1.26992 -21.1275 0 
354 1 2.39243 -21.0914 0 
356 1 3.51487 -21.0571 0 
358 1 4.63752 -21.0243 0 
360 1 5.76009 -20.9934 0 
362 1 6.88254 -20.9644 0 
364 1 8.00535 -20.9372 0 
366 1 9.1285 -20.9116 0 
368 1 10.2515 -20.8873 0 
370 1 11.3747 -20.8647 0 
372 1 12.4981 -20.8438 0 
374 1 13.6218 -20.8244 0 
376 1 14.7458 -20.8063 0 
378 1 15.8702 -20.7896 0 
380 1 16.9947 -20.7739 0 
382 1 18.1194 -20.7592 0 
384 1 19.2443 -20.7455 0 
386 1 20.3693 -20.7331 0 
388 1 21.4945 -20.7211 0 
390 1 22.6199 -20.7099 0 
392 1 23.7454 -20.6993 0 
394 1 24.8709 -20.6891 0 
396 2 25.9969 -20.6804 0 
398 2 27.1238 -20.673 0 
400 2 28.251 -20.6661 0 
501 2 -27.5497 -19.2779 0 
503 2 -26.4202 -19.2417 0 
505 2 -25.2906 -19.2049 0 
406 2 -24.7023 -20.1579 0 
507 2 -24.1608 -19.1673 0 
408 1 -23.5715 -20.1187 0 
509 1 -23.0295 -19.1261 0 
410 1 -22.4407 -20.0776 0 
511 1 -21.8983 -19.0842 0 
412 1 -21.3098 -20.0361 0 
513 1 -20.7674 -19.0419 0 
414 1 -20.1791 -19.9942 0 
416 1 -19.0484 -19.9517 0 
418 1 -17.9181 -19.9084 0 
420 1 -16.788 -19.8645 0 
422 1 -15.6583 -19.82 0 
424 1 -14.5291 -19.7749 0 
426 1 -13.3999 -19.7295 0 
428 1 -12.2713 -19.6833 0 
430 1 -11.1431 -19.6368 0 
432 1 -10.0155 -19.59 0 
434 1 -8.88828 -19.5428 0 
436 1 -7.76176 -19.4959 0 
438 1 -6.63607 -19.4491 0 
440 1 -5.51074 -19.4028 0 
442 1 -4.38602 -19.3573 0 
444 1 -3.262 -19.3125 0 
446 1 -2.13834 -19.2694 0 
448 1 -1.01491 -19.2274 0 
449 1 -0.433741 -20.1962 0 
450 1 0.108077 -19.187 0 
451 1 0.689097 -20.1573 0 
452 1 1.23081 -19.1484 0 
453 1 1.81186 -20.1197 0 
454 1 2.35373 -19.1118 0 
455 1 2.93456 -20.0842 0 
456 1 3.47657 -19.0768 0 
457 1 4.05714 -20.0505 0 
459 1 5.17993 -20.0186 0 
461 1 6.30271 -19.9886 0 
463 1 7.42554 -19.9606 0 
465 1 8.54866 -19.9345 0 
467 1 9.67188 -19.9095 0 
469 1 10.7955 -19.8864 0 
471 1 11.9193 -19.865 0 
473 1 13.0433 -19.8449 0 
475 1 14.1673 -19.8266 0 
477 1 15.2918 -19.8094 0 
479 1 16.4165 -19.7934 0 
481 1 17.5415 -19.7786 0 
483 1 18.6668 -19.7645 0 
485 1 19.7922 -19.7517 0 
487 1 20.9176 -19.7396 0 
489 1 22.0431 -19.7282 0 
491 1 23.1688 -19.7177 0 
493 1 24.2947 -19.7073 0 
495 2 25.4205 -19.6978 0 
497 2 26.5477 -19.6905 0 
499 2 27.6751 -19.6838 0 
502 2 -27.0088 -18.2886 0 
504 2 -25.8793 -18.252 0 
506 2 -24.7497 -18.2147 0 
508 1 -23.6188 -18.175 0 
510 1 -22.4876 -18.1331 0 
512 1 -21.3564 -18.0904 0 
514 1 -20.2253 -18.0474 0 
515 1 -19.6365 -18.9992 0 
516 1 -19.0944 -18.0037 0 
517 1 -18.5058 -18.9556 0 
518 1 -17.9636 -17.9592 0 
519 1 -17.3753 -18.9114 0 
520 1 -16.833 -17.914 0 
521 1 -16.2452 -18.8665 0 
523 1 -15.1154 -18.8207 0 
525 1 -13.9859 -18.775 0 
527 1 -12.8568 -18.7279 0 
529 1 -11.7281 -18.6806 0 
531 1 -10.5999 -18.6329 0 
533 1 -9.47239 -18.5848 0 
535 1 -8.34534 -18.5367 0 
537 1 -7.21904 -18.4885 0 
539 1 -6.0934 -18.441 0 
541 1 -4.96843 -18.3939 0 
543 1 -3.84405 -18.3477 0 
545 1 -2.72008 -18.3027 0 
547 1 -1.59665 -18.2594 0 
549 1 -0.473514 -18.2175 0 
551 1 0.649472 -18.1773 0 
553 1 1.77235 -18.1396 0 
555 1 2.8952 -18.1035 0 
557 1 4.01826 -18.0695 0 
458 1 4.59936 -19.044 0 
559 1 5.14143 -18.0378 0 
460 1 5.72231 -19.0131 0 
561 1 6.26466 -18.0078 0 
462 1 6.84539 -18.9841 0 
563 1 7.38809 -17.9801 0 
464 1 7.96877 -18.9572 0 
565 1 8.51186 -17.954 0 
466 1 9.09222 -18.9317 0 
567 1 9.63597 -17.9297 0 
468 1 10.2159 -18.9081 0 
569 1 10.7602 -17.9073 0 
470 1 11.3399 -18.8861 0 
472 1 12.464 -18.8657 0 
474 1 13.5885 -18.8466 0 
476 1 14.7132 -18.8292 0 
478 1 15.8382 -18.8129 0 
480 1 16.9634 -18.7978 0 
482 1 18.0889 -18.7838 0 
484 1 19.2146 -18.7705 0 
486 1 20.3404 -18.7581 0 
488 1 21.4664 -18.7465 0 
490 1 22.5924 -18.7359 0 
492 1 23.7184 -18.7258 0 
494 1 24.8448 -18.716 0 
496 2 25.9714 -18.7078 0 
498 2 27.0991 -18.7012 0 
500 2 28.2271 -18.6951 0 
601 2 -27.5979 -17.3354 0 
603 2 -26.4686 -17.2992 0 
605 2 -25.3391 -17.2621 0 
607 2 -24.2094 -17.2244 0 
609 1 -23.0779 -17.1823 0 
611 1 -21.9466 -17.1398 0 
613 1 -20.8151 -17.0964 0 
615 1 -19.6839 -17.0523 0 
617 1 -18.5528 -17.0078 0 
619 1 -17.4219 -16.9623 0 
522 1 -15.7027 -17.8677 0 
621 1 -16.2913 -16.9158 0 
524 1 -14.5725 -17.8211 0 
623 1 -15.1607 -16.8687 0 
526 1 -13.4431 -17.7737 0 
625 1 -14.0304 -16.8205 0 
528 1 -12.3138 -17.7257 0 
627 1 -12.9007 -16.772 0 
530 1 -11.1851 -17.677 0 
532 1 -10.0571 -17.6279 0 
534 1 -8.9297 -17.5787 0 
536 1 -7.80302 -17.5293 0 
538 1 -6.67671 -17.4803 0 
540 1 -5.55128 -17.4315 0 
542 1 -4.4266 -17.3839 0 
544 1 -3.30244 -17.3373 0 
546 1 -2.17867 -17.2921 0 
548 1 -1.05531 -17.2486 0 
550 1 0.0678131 -17.2069 0 
552 1 1.19077 -17.1674 0 
554 1 2.3136 -17.1302 0 
556 1 3.4367 -17.0953 0 
558 1 4.56006 -17.0624 0 
560 1 5.68348 -17.0316 0 
562 1 6.80714 -17.0029 0 
564 1 7.93108 -16.9763 0 
566 1 9.05524 -16.9514 0 
568 1 10.1798 -16.9284 0 
571 1 11.8846 -17.8863 0 
570 1 11.3045 -16.9069 0 
573 1 13.0093 -17.8669 0 
572 1 12.4297 -16.8871 0 
575 1 14.1346 -17.849 0 
574 1 13.5551 -16.8688 0 
577 1 15.2599 -17.8323 0 
576 1 14.6808 -16.8517 0 
579 1 16.3852 -17.8171 0 
578 1 15.8066 -16.8359 0 
581 1 17.5109 -17.8027 0 
580 1 16.9325 -16.8216 0 
583 1 18.6369 -17.7893 0 
582 1 18.0587 -16.8081 0 
585 1 19.763 -17.7767 0 
584 1 19.1851 -16.7954 0 
587 1 20.8891 -17.765 0 
586 1 20.3116 -16.7834 0 
589 1 22.0155 -17.7541 0 
588 1 21.4384 -16.7725 0 
591 1 23.1419 -17.744 0 
590 1 22.5654 -16.7623 0 
593 1 24.2683 -17.7343 0 
592 1 23.6921 -16.7526 0 
595 2 25.3948 -17.725 0 
594 1 24.8191 -16.7432 0 
596 2 25.9465 -16.7357 0 
597 2 26.5229 -17.7186 0 
598 2 27.0751 -16.7299 0 
599 2 27.6512 -17.7126 0 
600 2 28.2039 -16.7246 0 
602 2 -27.0583 -16.3463 0 
604 2 -25.929 -16.3096 0 
606 2 -24.7995 -16.2721 0 
608 1 -23.6685 -16.2319 0 
610 1 -22.5373 -16.1894 0 
612 1 -21.406 -16.1462 0 
614 1 -20.2746 -16.102 0 
616 1 -19.1431 -16.0572 0 
618 1 -18.0118 -16.0114 0 
620 1 -16.8807 -15.9647 0 
622 1 -15.7497 -15.9173 0 
624 1 -14.6191 -15.8687 0 
626 1 -13.4886 -15.8192 0 
628 1 -12.3589 -15.7693 0 
629 1 -11.7716 -16.7226 0 
630 1 -11.2299 -15.7183 0 
631 1 -10.6431 -16.6725 0 
632 1 -10.1013 -15.667 0 
633 1 -9.51503 -16.6221 0 
634 1 -8.97349 -15.6147 0 
635 1 -8.38779 -16.5712 0 
637 1 -7.26109 -16.5209 0 
639 1 -6.1352 -16.4705 0 
641 1 -5.01003 -16.4211 0 
643 1 -3.88538 -16.3729 0 
645 1 -2.76133 -16.3258 0 
647 1 -1.63773 -16.2805 0 
649 1 -0.514483 -16.2372 0 
651 1 0.60847 -16.1959 0 
653 1 1.73157 -16.1572 0 
655 1 2.85481 -16.121 0 
657 1 3.97807 -16.0871 0 
659 1 5.10159 -16.0553 0 
661 1 6.22554 -16.0257 0 
663 1 7.34984 -15.9984 0 
665 1 8.47427 -15.9729 0 
667 1 9.59894 -15.9494 0 
669 1 10.724 -15.9275 0 
671 1 11.8494 -15.9073 0 
673 1 12.9753 -15.8885 0 
675 1 14.1013 -15.871 0 
677 1 15.2275 -15.8548 0 
679 1 16.3539 -15.8402 0 
681 1 17.4804 -15.8267 0 
683 1 18.6071 -15.814 0 
685 1 19.734 -15.802 0 
687 1 20.8611 -15.7909 0 
689 1 21.9884 -15.7805 0 
691 1 23.1156 -15.7707 0 
693 1 24.2428 -15.7615 0 
695 2 25.3699 -15.7527 0 
697 2 26.4989 -15.7471 0 
699 2 27.6281 -15.742 0 
701 2 -27.6483 -15.3934 0 
703 2 -26.5193 -15.357 0 
705 2 -25.3901 -15.3199 0 
707 2 -24.2607 -15.282 0 
709 1 -23.1291 -15.2394 0 
711 1 -21.9978 -15.1962 0 
713 1 -20.8664 -15.1523 0 
715 1 -19.7348 -15.1075 0 
717 1 -18.6031 -15.0616 0 
719 1 -17.4715 -15.0147 0 
721 1 -16.34 -14.9669 0 
723 1 -15.209 -14.9178 0 
725 1 -14.0782 -14.8681 0 
727 1 -12.9478 -14.8172 0 
729 1 -11.8181 -14.7655 0 
731 1 -10.6888 -14.7132 0 
733 1 -9.56053 -14.6599 0 
636 1 -7.84613 -15.5628 0 
735 1 -8.43254 -14.6064 0 
638 1 -6.71968 -15.511 0 
737 1 -7.30521 -14.5528 0 
640 1 -5.59399 -15.4595 0 
739 1 -6.17895 -14.4997 0 
642 1 -4.46908 -15.4094 0 
644 1 -3.34478 -15.3604 0 
646 1 -2.22086 -15.3133 0 
648 1 -1.09731 -15.2679 0 
650 1 0.0257742 -15.2248 0 
652 1 1.14893 -15.1847 0 
654 1 2.27231 -15.147 0 
656 1 3.39578 -15.1118 0 
658 1 4.51948 -15.0791 0 
660 1 5.64344 -15.0487 0 
662 1 6.76779 -15.0205 0 
664 1 7.89257 -14.9944 0 
666 1 9.01762 -14.9701 0 
668 1 10.143 -14.9479 0 
670 1 11.2689 -14.9273 0 
672 1 12.395 -14.9081 0 
674 1 13.5212 -14.8903 0 
676 1 14.6477 -14.8738 0 
678 1 15.7746 -14.8589 0 
680 1 16.9017 -14.8452 0 
682 1 18.0289 -14.8323 0 
684 1 19.1561 -14.8204 0 
686 1 20.2835 -14.8092 0 
688 1 21.411 -14.7988 0 
690 1 22.5388 -14.789 0 
692 1 23.6666 -14.7798 0 
694 1 24.7944 -14.7711 0 
696 2 25.9226 -14.7642 0 
698 2 27.0521 -14.7592 0 
700 2 28.1818 -14.7547 0 
702 2 -27.11 -14.4044 0 
801 2 -27.7009 -13.4516 0 
704 2 -25.9811 -14.3676 0 
803 2 -26.5724 -13.4152 0 
706 2 -24.852 -14.3301 0 
805 2 -25.4437 -13.3781 0 
708 1 -23.7214 -14.2898 0 
807 2 -24.3146 -13.3401 0 
710 1 -22.5902 -14.2466 0 
809 1 -23.1833 -13.2973 0 
712 1 -21.4586 -14.203 0 
714 1 -20.327 -14.1582 0 
716 1 -19.1953 -14.1124 0 
718 1 -18.0636 -14.0656 0 
720 1 -16.9319 -14.0176 0 
722 1 -15.8004 -13.9681 0 
724 1 -14.669 -13.918 0 
726 1 -13.5379 -13.8666 0 
728 1 -12.4074 -13.8141 0 
730 1 -11.2774 -13.7608 0 
732 1 -10.1484 -13.7064 0 
734 1 -9.01985 -13.6516 0 
736 1 -7.89189 -13.5965 0 
738 1 -6.76488 -13.5413 0 
740 1 -5.63881 -13.4871 0 
741 1 -5.0534 -14.4473 0 
742 1 -4.51362 -13.4335 0 
743 1 -3.92877 -14.3962 0 
744 1 -3.38906 -13.3819 0 
745 1 -2.80459 -14.347 0 
746 1 -2.26525 -13.3322 0 
747 1 -1.68086 -14.2997 0 
749 1 -0.557489 -14.2544 0 
751 1 0.565941 -14.2125 0 
753 1 1.68929 -14.1733 0 
755 1 2.81291 -14.1367 0 
757 1 3.93688 -14.1029 0 
759 1 5.06104 -14.0715 0 
761 1 6.18555 -14.0425 0 
763 1 7.31046 -14.0158 0 
765 1 8.43573 -13.9909 0 
767 1 9.56156 -13.9682 0 
769 1 10.6878 -13.9472 0 
771 1 11.8143 -13.9277 0 
773 1 12.9411 -13.9095 0 
775 1 14.0678 -13.8927 0 
777 1 15.195 -13.8775 0 
779 1 16.3224 -13.8636 0 
781 1 17.4499 -13.8505 0 
783 1 18.5776 -13.8386 0 
785 1 19.7054 -13.8273 0 
787 1 20.8335 -13.8169 0 
789 1 21.9617 -13.8072 0 
791 1 23.0899 -13.7981 0 
793 1 24.2181 -13.7893 0 
795 2 25.3462 -13.7811 0 
797 2 26.4761 -13.7764 0 
799 2 27.6062 -13.772 0 
802 2 -27.164 -12.4626 0 
804 2 -26.0357 -12.4259 0 
806 2 -24.9071 -12.3884 0 
808 1 -23.7767 -12.3481 0 
810 1 -22.6458 -12.3048 0 
811 1 -22.0519 -13.2539 0 
812 1 -21.5147 -12.2608 0 
813 1 -20.9203 -13.2094 0 
814 1 -20.3831 -12.2156 0 
815 1 -19.7885 -13.1637 0 
816 1 -19.251 -12.1692 0 
817 1 -18.6566 -13.1171 0 
818 1 -18.119 -12.1215 0 
819 1 -17.5248 -13.0692 0 
821 1 -16.3931 -13.0196 0 
823 1 -15.2613 -12.9692 0 
825 1 -14.1297 -12.9174 0 
827 1 -12.9985 -12.8642 0 
829 1 -11.8677 -12.8101 0 
831 1 -10.7377 -12.7546 0 
833 1 -9.60834 -12.6986 0 
835 1 -8.47968 -12.6419 0 
837 1 -7.35194 -12.5848 0 
839 1 -6.22497 -12.5283 0 
841 1 -5.09915 -12.4724 0 
843 1 -3.97429 -12.4181 0 
845 1 -2.85029 -12.3657 0 
748 1 -1.1419 -13.2849 0 
847 1 -1.72667 -12.316 0 
849 1 -0.603004 -12.2697 0 
750 1 -0.0182482 -13.2409 0 
851 1 0.520717 -12.2268 0 
752 1 1.1054 -13.1999 0 
853 1 1.64457 -12.187 0 
754 1 2.22905 -13.1618 0 
756 1 3.3531 -13.1268 0 
758 1 4.4776 -13.0942 0 
760 1 5.60252 -13.0643 0 
762 1 6.72789 -13.0371 0 
764 1 7.85346 -13.0116 0 
766 1 8.97966 -12.9885 0 
768 1 10.1063 -12.967 0 
770 1 11.2332 -12.947 0 
772 1 12.3603 -12.9287 0 
774 1 13.4877 -12.9114 0 
776 1 14.6154 -12.8959 0 
778 1 15.7434 -12.8818 0 
780 1 16.8713 -12.8686 0 
782 1 17.9994 -12.8566 0 
784 1 19.1277 -12.8455 0 
786 1 20.2562 -12.835 0 
788 1 21.3847 -12.8253 0 
790 1 22.5132 -12.8162 0 
792 1 23.642 -12.8076 0 
794 1 24.771 -12.7995 0 
796 2 25.9 -12.7934 0 
798 2 27.0306 -12.7893 0 
800 2 28.1612 -12.7854 0 
901 2 -27.7557 -11.5099 0 
903 2 -26.6279 -11.4735 0 
905 2 -25.4997 -11.4364 0 
907 2 -24.3713 -11.3985 0 
909 1 -23.2406 -11.3559 0 
911 1 -22.1096 -11.3122 0 
913 1 -20.9783 -11.2677 0 
915 1 -19.8465 -11.2219 0 
917 1 -18.7146 -11.1744 0 
820 1 -16.9871 -12.072 0 
919 1 -17.5826 -11.1254 0 
822 1 -15.855 -12.0215 0 
921 1 -16.4503 -11.0749 0 
824 1 -14.7229 -11.9694 0 
923 1 -15.318 -11.0227 0 
826 1 -13.5911 -11.9158 0 
828 1 -12.4596 -11.861 0 
830 1 -11.3288 -11.8047 0 
832 1 -10.1984 -11.7475 0 
834 1 -9.06897 -11.6893 0 
836 1 -7.94036 -11.6304 0 
838 1 -6.81264 -11.5716 0 
840 1 -5.68624 -11.5131 0 
842 1 -4.5608 -11.456 0 
844 1 -3.4364 -11.4007 0 
846 1 -2.31252 -11.3481 0 
848 1 -1.18875 -11.2991 0 
850 1 -0.0651017 -11.2539 0 
852 1 1.0588 -11.2125 0 
855 1 2.76873 -12.1507 0 
854 1 2.18319 -11.1745 0 
857 1 3.89343 -12.1171 0 
856 1 3.30819 -11.14 0 
859 1 5.0187 -12.0862 0 
858 1 4.43393 -11.1082 0 
861 1 6.14453 -12.0582 0 
860 1 5.56021 -11.0794 0 
863 1 7.27059 -12.0322 0 
862 1 6.68684 -11.0528 0 
865 1 8.39725 -12.0086 0 
864 1 7.81396 -11.0285 0 
867 1 9.52427 -11.9866 0 
869 1 10.6516 -11.9663 0 
871 1 11.7793 -11.9475 0 
873 1 12.9072 -11.9302 0 
875 1 14.0353 -11.9143 0 
877 1 15.1639 -11.8998 0 
879 1 16.2925 -11.8866 0 
881 1 17.421 -11.8744 0 
883 1 18.5498 -11.8633 0 
885 1 19.6786 -11.8528 0 
887 1 20.8075 -11.8433 0 
889 1 21.9366 -11.8343 0 
891 1 23.0658 -11.8257 0 
893 1 24.1949 -11.8179 0 
895 2 25.3239 -11.8103 0 
897 2 26.4549 -11.8064 0 
899 2 27.586 -11.8028 0 
902 2 -27.2202 -10.5209 0 
904 2 -26.0925 -10.4842 0 
906 2 -24.9646 -10.4468 0 
908 1 -23.8351 -10.4067 0 
910 1 -22.7049 -10.3637 0 
912 1 -21.574 -10.3197 0 
914 1 -20.4428 -10.2746 0 
916 1 -19.3112 -10.2277 0 
918 1 -18.1793 -10.1792 0 
920 1 -17.0472 -10.129 0 
922 1 -15.9148 -10.077 0 
924 1 -14.7823 -10.0233 0 
925 1 -14.1858 -10.969 0 
926 1 -13.6496 -9.96797 0 
927 1 -13.0536 -10.9136 0 
928 1 -12.5173 -9.91054 0 
929 1 -11.9218 -10.8566 0 
930 1 -11.385 -9.85153 0 
931 1 -10.7904 -10.7985 0 
933 1 -9.65994 -10.7387 0 
935 1 -8.53044 -10.6782 0 
937 1 -7.40181 -10.6172 0 
939 1 -6.27469 -10.556 0 
941 1 -5.14848 -10.4959 0 
943 1 -4.0236 -10.4373 0 
945 1 -2.89944 -10.3815 0 
947 1 -1.77551 -10.3294 0 
949 1 -0.651669 -10.2814 0 
951 1 0.472587 -10.2381 0 
953 1 1.59721 -10.1986 0 
955 1 2.72249 -10.1625 0 
957 1 3.8483 -10.1299 0 
959 1 4.97505 -10.1004 0 
961 1 6.10223 -10.0733 0 
963 1 7.22999 -10.0485 0 
965 1 8.35827 -10.0256 0 
866 1 8.94161 -11.0062 0 
967 1 9.48687 -10.0046 0 
868 1 10.0696 -10.9854 0 
969 1 10.6158 -9.98512 0 
870 1 11.1978 -10.9664 0 
971 1 11.7448 -9.96742 0 
872 1 12.3263 -10.9489 0 
973 1 12.8741 -9.9509 0 
874 1 13.4549 -10.9325 0 
975 1 14.0037 -9.93594 0 
876 1 14.5839 -10.918 0 
977 1 15.1333 -9.92254 0 
878 1 15.7131 -10.9045 0 
979 1 16.263 -9.90982 0 
880 1 16.8422 -10.892 0 
981 1 17.3931 -9.89853 0 
882 1 17.9715 -10.8809 0 
983 1 18.5231 -9.88817 0 
884 1 19.1007 -10.8705 0 
985 1 19.6531 -9.8787 0 
886 1 20.2302 -10.861 0 
987 1 20.7832 -9.86987 0 
888 1 21.3599 -10.8523 0 
890 1 22.4896 -10.8439 0 
989 1 21.9135 -9.86182 0 
892 1 23.6193 -10.836 0 
991 1 23.0436 -9.85414 0 
894 1 24.7492 -10.8288 0 
993 1 24.1737 -9.84717 0 
896 2 25.8793 -10.8234 0 
995 2 25.3037 -9.84035 0 
898 2 27.0108 -10.8201 0 
997 2 26.4357 -9.83726 0 
900 2 28.1423 -10.817 0 
999 2 27.5677 -9.8344 0 
1001 2 -27.8125 -9.56805 0 
1003 2 -26.6854 -9.5318 0 
1005 2 -25.5581 -9.49477 0 
1007 2 -24.4305 -9.45693 0 
1009 1 -23.3007 -9.41486 0 
1011 1 -22.1704 -9.37166 0 
1013 1 -21.0397 -9.32719 0 
1015 1 -19.9086 -9.28114 0 
1017 1 -18.7772 -9.23321 0 
1019 1 -17.6453 -9.18372 0 
1021 1 -16.5132 -9.13224 0 
1023 1 -15.3807 -9.07884 0 
1025 1 -14.2478 -9.02369 0 
1027 1 -13.1149 -8.96614 0 
1029 1 -11.982 -8.90668 0 
932 1 -10.2535 -9.79057 0 
1031 1 -10.8495 -8.84482 0 
934 1 -9.12284 -9.72827 0 
1033 1 -9.71769 -8.78105 0 
936 1 -7.99309 -9.66536 0 
1035 1 -8.58665 -8.71617 0 
938 1 -6.86482 -9.60145 0 
940 1 -5.73783 -9.53836 0 
942 1 -4.61221 -9.47596 0 
944 1 -3.48759 -9.41653 0 
946 1 -2.36349 -9.36099 0 
948 1 -1.23966 -9.30971 0 
950 1 -0.115165 -9.26391 0 
952 1 1.00969 -9.22247 0 
954 1 2.1353 -9.18525 0 
956 1 3.2617 -9.15129 0 
958 1 4.38884 -9.12102 0 
960 1 5.51646 -9.09349 0 
962 1 6.64489 -9.06828 0 
964 1 7.77383 -9.04491 0 
966 1 8.90328 -9.02362 0 
968 1 10.0329 -9.00387 0 
970 1 11.1628 -8.98579 0 
972 1 12.2928 -8.96908 0 
974 1 13.4231 -8.95401 0 
976 1 14.5535 -8.94021 0 
978 1 15.684 -8.92766 0 
980 1 16.8146 -8.91621 0 
982 1 17.9452 -8.90594 0 
984 1 19.0758 -8.8963 0 
986 1 20.2063 -8.88755 0 
988 1 21.3372 -8.87961 0 
990 1 22.468 -8.87195 0 
992 1 23.5986 -8.8652 0 
994 1 24.7294 -8.85871 0 
996 2 25.8608 -8.85435 0 
998 2 26.9933 -8.85174 0 
1000 2 28.1257 -8.84931 0 
1002 2 -27.2783 -8.57905 0 
1101 2 -27.8711 -7.62598 0 
1004 2 -26.1516 -8.54247 0 
1103 2 -26.7449 -7.58983 0 
1006 2 -25.0246 -8.50509 0 
1105 2 -25.6186 -7.5529 0 
1008 1 -23.8961 -8.46535 0 
1107 2 -24.492 -7.51516 0 
1010 1 -22.7669 -8.42315 0 
1012 1 -21.6372 -8.37963 0 
1014 1 -20.5067 -8.33443 0 
1016 1 -19.3757 -8.28741 0 
1018 1 -18.2444 -8.23856 0 
1020 1 -17.1128 -8.18787 0 
1022 1 -15.9807 -8.13531 0 
1024 1 -14.8479 -8.08043 0 
1026 1 -13.7151 -8.02327 0 
1028 1 -12.582 -7.96375 0 
1030 1 -11.4487 -7.9015 0 
1032 1 -10.3156 -7.83682 0 
1034 1 -9.18304 -7.77013 0 
1036 1 -8.05187 -7.70131 0 
1037 1 -7.457 -8.64971 0 
1038 1 -6.92218 -7.63142 0 
1039 1 -6.32878 -8.58316 0 
1041 1 -5.20243 -8.51728 0 
1043 1 -4.07707 -8.45346 0 
1045 1 -2.95261 -8.39366 0 
1047 1 -1.82882 -8.33871 0 
1049 1 -0.704311 -8.29008 0 
1051 1 0.420672 -8.24619 0 
1053 1 1.54665 -8.20763 0 
1055 1 2.67361 -8.17282 0 
1057 1 3.80148 -8.14152 0 
1059 1 4.93002 -8.11333 0 
1061 1 6.05919 -8.08784 0 
1063 1 7.18888 -8.06409 0 
1065 1 8.31916 -8.04243 0 
1067 1 9.44952 -8.02251 0 
1069 1 10.5803 -8.00428 0 
1071 1 11.7112 -7.98728 0 
1073 1 12.8422 -7.97202 0 
1075 1 13.9736 -7.95804 0 
1077 1 15.1049 -7.94544 0 
1079 1 16.236 -7.93363 0 
1081 1 17.3673 -7.9233 0 
1083 1 18.4986 -7.91381 0 
1085 1 19.6298 -7.90505 0 
1087 1 20.7611 -7.89728 0 
1089 1 21.8924 -7.88988 0 
1091 1 23.0236 -7.88295 0 
1093 1 24.1548 -7.87692 0 
1095 2 25.2861 -7.87134 0 
1097 2 26.419 -7.86899 0 
1099 2 27.5519 -7.8668 0 
1102 2 -27.3381 -6.63684 0 
1104 2 -26.2124 -6.60035 0 
1106 2 -25.0865 -6.56307 0 
1108 1 -23.9594 -6.52384 0 
1109 1 -23.3633 -7.47388 0 
1110 1 -22.8316 -6.48235 0 
1111 1 -22.2344 -7.43132 0 
1112 1 -21.7033 -6.43947 0 
1113 1 -21.105 -7.38734 0 
1114 1 -20.5744 -6.39471 0 
1115 1 -19.975 -7.34136 0 
1116 1 -19.4449 -6.3481 0 
1117 1 -18.8445 -7.29346 0 
1119 1 -17.7134 -7.24372 0 
1121 1 -16.582 -7.19192 0 
1123 1 -15.4502 -7.13814 0 
1125 1 -14.3177 -7.08145 0 
1127 1 -13.1846 -7.02233 0 
1129 1 -12.0511 -6.96047 0 
1131 1 -10.9172 -6.89534 0 
1133 1 -9.7834 -6.82769 0 
1135 1 -8.65051 -6.75679 0 
1137 1 -7.51893 -6.6838 0 
1139 1 -6.3895 -6.60961 0 
1040 1 -5.79448 -7.56136 0 
1141 1 -5.26221 -6.5359 0 
1042 1 -4.66861 -7.49309 0 
1143 1 -4.13684 -6.46524 0 
1044 1 -3.54379 -7.42827 0 
1046 1 -2.41958 -7.36846 0 
1048 1 -1.29499 -7.31638 0 
1050 1 -0.169841 -7.27007 0 
1052 1 0.956548 -7.22985 0 
1054 1 2.08403 -7.19411 0 
1056 1 3.21262 -7.16209 0 
1058 1 4.34214 -7.13315 0 
1060 1 5.47234 -7.1072 0 
1062 1 6.60295 -7.08322 0 
1064 1 7.73421 -7.06149 0 
1066 1 8.86576 -7.0411 0 
1068 1 9.99741 -7.02282 0 
1070 1 11.1292 -7.00568 0 
1072 1 12.2613 -6.99008 0 
1074 1 13.3935 -6.97619 0 
1076 1 14.5256 -6.96312 0 
1078 1 15.6575 -6.95116 0 
1080 1 16.7895 -6.94055 0 
1082 1 17.9214 -6.93096 0 
1084 1 19.0534 -6.92237 0 
1086 1 20.1853 -6.91461 0 
1088 1 21.317 -6.9076 0 
1090 1 22.4489 -6.90076 0 
1092 1 23.5808 -6.89495 0 
1094 1 24.7128 -6.88976 0 
1096 2 25.8451 -6.88616 0 
1098 2 26.9784 -6.88422 0 
1100 2 28.1116 -6.88241 0 
1201 2 -27.9311 -5.68349 0 
1203 2 -26.806 -5.64742 0 