ITEM: TIMESTEP
3300
ITEM: NUMBER OF ATOMS
2850
ITEM: BOX BOUNDS ff ff pp
-42.092 42.092
-42.092 42.092
-0.280613 0.280613
ITEM: ATOMS id type xu yu zu 
1 2 -27.3398 -28.9988 0 
3 2 -26.2107 -28.9642 0 
5 2 -25.0816 -28.9291 0 
7 2 -23.9525 -28.8936 0 
9 2 -22.8235 -28.8577 0 
11 2 -21.6944 -28.8213 0 
13 2 -20.5655 -28.7844 0 
15 2 -19.4366 -28.7472 0 
17 2 -18.3079 -28.7095 0 
19 2 -17.1793 -28.6715 0 
21 2 -16.0508 -28.6331 0 
23 2 -14.9226 -28.5944 0 
25 2 -13.7947 -28.5554 0 
27 2 -12.667 -28.5163 0 
29 2 -11.5396 -28.477 0 
31 2 -10.4126 -28.4376 0 
33 2 -9.28592 -28.3982 0 
35 2 -8.15967 -28.3589 0 
37 2 -7.03386 -28.3198 0 
39 2 -5.90848 -28.281 0 
2 2 -26.7941 -28.0086 0 
4 2 -25.6649 -27.9736 0 
6 2 -24.5357 -27.9381 0 
8 2 -23.4065 -27.902 0 
10 2 -22.2773 -27.8656 0 
12 2 -21.1481 -27.8286 0 
14 2 -20.019 -27.7912 0 
16 2 -18.89 -27.7533 0 
18 2 -17.7611 -27.715 0 
20 2 -16.6324 -27.6763 0 
22 2 -15.5039 -27.6373 0 
24 2 -14.3755 -27.5979 0 
26 2 -13.2475 -27.5582 0 
28 2 -12.1197 -27.5183 0 
30 2 -10.9923 -27.4783 0 
32 2 -9.86522 -27.4382 0 
34 2 -8.73856 -27.3981 0 
36 2 -7.61233 -27.3581 0 
38 2 -6.48656 -27.3184 0 
40 2 -5.36126 -27.2789 0 
41 2 -4.78357 -28.2426 0 
42 2 -4.23645 -27.24 0 
43 2 -3.65912 -28.2046 0 
44 2 -3.11213 -27.2015 0 
45 2 -2.53513 -28.1673 0 
46 2 -1.98828 -27.1638 0 
47 2 -1.41159 -28.1307 0 
48 2 -0.8649 -27.1269 0 
49 2 -0.288464 -28.095 0 
51 2 0.834263 -28.0602 0 
53 2 1.95663 -28.0264 0 
55 2 3.07869 -27.9937 0 
57 2 4.20048 -27.9622 0 
59 2 5.32207 -27.9319 0 
61 2 6.4435 -27.9029 0 
63 2 7.56483 -27.8752 0 
65 2 8.68613 -27.8488 0 
67 2 9.80743 -27.8237 0 
69 2 10.9288 -27.8 0 
71 2 12.0503 -27.7775 0 
73 2 13.1719 -27.7563 0 
75 2 14.2937 -27.7363 0 
77 2 15.4157 -27.7174 0 
79 2 16.538 -27.6997 0 
81 2 17.6605 -27.683 0 
83 2 18.7832 -27.6673 0 
85 2 19.9063 -27.6526 0 
87 2 21.0296 -27.6388 0 
89 2 22.1532 -27.6258 0 
91 2 23.2771 -27.6136 0 
93 2 24.4012 -27.6022 0 
95 2 25.5256 -27.5914 0 
97 2 26.6503 -27.5812 0 
99 2 27.7752 -27.5717 0 
101 2 -27.378 -27.0533 0 
103 2 -26.2487 -27.0183 0 
102 2 -26.833 -26.0633 0 
105 2 -25.1194 -26.9828 0 
104 2 -25.7037 -26.0278 0 
107 2 -23.9901 -26.9468 0 
106 2 -24.5742 -25.9918 0 
109 2 -22.8607 -26.9102 0 
108 1 -23.4443 -25.9555 0 
111 2 -21.7314 -26.8732 0 
113 2 -20.6021 -26.8357 0 
115 2 -19.4729 -26.7977 0 
117 2 -18.3437 -26.7591 0 
119 2 -17.2147 -26.7202 0 
121 2 -16.0858 -26.6808 0 
123 2 -14.9572 -26.641 0 
125 2 -13.8287 -26.6009 0 
127 2 -12.7006 -26.5605 0 
129 2 -11.5727 -26.5198 0 
131 2 -10.4452 -26.479 0 
133 2 -9.31813 -26.4382 0 
135 2 -8.19146 -26.3973 0 
137 2 -7.06526 -26.3566 0 
139 2 -5.93954 -26.3162 0 
141 2 -4.81433 -26.2762 0 
143 2 -3.68963 -26.2366 0 
145 2 -2.56545 -26.1977 0 
147 2 -1.44177 -26.1596 0 
50 2 0.258046 -27.0909 0 
149 2 -0.318563 -26.1224 0 
52 2 1.38059 -27.056 0 
151 2 0.804196 -26.0862 0 
54 2 2.50279 -27.0222 0 
153 2 1.92656 -26.0512 0 
56 2 3.62468 -26.9896 0 
155 2 3.04857 -26.0174 0 
58 2 4.74633 -26.9582 0 
157 2 4.1703 -25.9849 0 
60 2 5.86779 -26.9282 0 
159 2 5.2918 -25.9538 0 
62 2 6.98913 -26.8996 0 
64 2 8.11041 -26.8723 0 
66 2 9.23169 -26.8465 0 
68 2 10.353 -26.822 0 
70 2 11.4745 -26.7989 0 
72 2 12.596 -26.7771 0 
74 2 13.7178 -26.7566 0 
76 2 14.8398 -26.7373 0 
78 2 15.962 -26.7192 0 
80 2 17.0845 -26.7023 0 
82 2 18.2073 -26.6863 0 
84 2 19.3304 -26.6714 0 
86 2 20.4538 -26.6575 0 
88 2 21.5774 -26.6444 0 
90 2 22.7014 -26.6321 0 
92 2 23.8256 -26.6206 0 
94 2 24.9501 -26.6098 0 
96 2 26.0749 -26.5996 0 
98 2 27.2 -26.5901 0 
100 2 28.3253 -26.5811 0 
201 2 -27.4179 -25.1085 0 
203 2 -26.2885 -25.0731 0 
205 2 -25.159 -25.0372 0 
207 2 -24.0295 -25.0007 0 
209 1 -22.8991 -24.9634 0 
110 1 -22.3141 -25.9176 0 
211 1 -21.7688 -24.9239 0 
112 1 -21.1845 -25.8794 0 
213 1 -20.6388 -24.8855 0 
114 1 -20.0551 -25.8413 0 
215 1 -19.5092 -24.8464 0 
116 1 -18.9258 -25.8023 0 
217 1 -18.3798 -24.8059 0 
118 1 -17.797 -25.7627 0 
120 1 -16.668 -25.7236 0 
122 1 -15.5392 -25.6829 0 
124 1 -14.4108 -25.6421 0 
126 1 -13.2823 -25.6013 0 
128 1 -12.1544 -25.56 0 
130 1 -11.0267 -25.5189 0 
132 1 -9.89955 -25.4769 0 
134 1 -8.77305 -25.4357 0 
136 1 -7.64675 -25.3944 0 
138 1 -6.52097 -25.353 0 
140 1 -5.39588 -25.3117 0 
142 1 -4.27094 -25.2717 0 
144 1 -3.14676 -25.2315 0 
146 1 -2.02307 -25.192 0 
148 1 -0.899694 -25.1541 0 
150 1 0.223323 -25.1169 0 
152 1 1.34592 -25.0806 0 
154 1 2.46826 -25.0462 0 
156 1 3.59001 -25.0125 0 
158 1 4.71152 -24.9802 0 
160 1 5.83344 -24.9497 0 
161 2 6.41316 -25.9242 0 
162 1 6.95517 -24.9207 0 
163 2 7.53443 -25.896 0 
164 1 8.0769 -24.8934 0 
165 2 8.65568 -25.8693 0 
167 2 9.77697 -25.844 0 
166 1 9.19845 -24.8669 0 
169 2 10.8984 -25.8202 0 
168 1 10.3203 -24.8428 0 
171 2 12.0199 -25.7978 0 
170 1 11.4421 -24.8198 0 
173 2 13.1416 -25.7768 0 
175 2 14.2636 -25.7571 0 
177 2 15.3858 -25.7386 0 
179 2 16.5083 -25.7213 0 
181 2 17.6311 -25.7052 0 
183 2 18.7543 -25.6901 0 
185 2 19.8777 -25.6759 0 
187 2 21.0014 -25.6627 0 
189 2 22.1254 -25.6504 0 
191 2 23.2498 -25.6388 0 
193 2 24.3744 -25.628 0 
195 2 25.4993 -25.6179 0 
197 2 26.6245 -25.6084 0 
199 2 27.75 -25.5994 0 
202 2 -26.8739 -24.1187 0 
204 2 -25.7444 -24.0828 0 
206 2 -24.6148 -24.0464 0 
208 1 -23.4839 -24.0087 0 
210 1 -22.3538 -23.9698 0 
212 1 -21.2231 -23.9302 0 
214 1 -20.0929 -23.8909 0 
216 1 -18.9634 -23.8503 0 
219 1 -17.2504 -24.7667 0 
218 1 -17.8336 -23.81 0 
221 1 -16.1215 -24.7258 0 
220 1 -16.7049 -23.7691 0 
222 1 -15.5763 -23.7269 0 
223 1 -14.993 -24.6841 0 
224 1 -14.4477 -23.6855 0 
225 1 -13.8645 -24.6432 0 
227 1 -12.7364 -24.6008 0 
229 1 -11.609 -24.5593 0 
231 1 -10.4816 -24.517 0 
233 1 -9.35436 -24.4743 0 
235 1 -8.22814 -24.4324 0 
237 1 -7.10248 -24.3905 0 
239 1 -5.97712 -24.3479 0 
241 1 -4.85193 -24.3069 0 
243 1 -3.72747 -24.2659 0 
245 1 -2.60349 -24.2255 0 
247 1 -1.47984 -24.1861 0 
249 1 -0.356757 -24.1479 0 
251 1 0.766001 -24.1107 0 
253 1 1.88849 -24.0751 0 
255 1 3.01048 -24.0404 0 
257 1 4.13224 -24.0069 0 
259 1 5.25399 -23.9759 0 
261 1 6.37566 -23.9458 0 
263 1 7.49735 -23.9177 0 
265 1 8.61908 -23.8905 0 
267 1 9.74117 -23.8655 0 
269 1 10.8634 -23.842 0 
271 1 11.9858 -23.8195 0 
172 1 12.564 -24.7981 0 
273 1 13.1083 -23.7988 0 
174 1 13.6865 -24.7779 0 
275 1 14.2311 -23.7797 0 
176 1 14.8092 -24.7592 0 
277 1 15.354 -23.7616 0 
178 1 15.9318 -24.7414 0 
279 1 16.477 -23.7444 0 
180 1 17.0546 -24.7246 0 
281 1 17.6006 -23.7286 0 
182 1 18.1779 -24.7091 0 
283 1 18.7248 -23.7136 0 
184 1 19.3014 -24.6945 0 
285 1 19.8493 -23.7001 0 
186 1 20.4253 -24.6818 0 
287 1 20.9733 -23.6879 0 
188 1 21.5496 -24.6694 0 
289 1 22.0977 -23.6759 0 
190 1 22.6741 -24.6572 0 
291 1 23.2227 -23.6644 0 
192 1 23.7987 -24.6465 0 
293 1 24.3478 -23.6542 0 
194 1 24.9236 -24.6363 0 
295 2 25.4729 -23.6443 0 
196 2 26.0488 -24.6264 0 
198 2 27.1745 -24.6176 0 
200 2 28.3003 -24.6093 0 
301 2 -27.4598 -23.1644 0 
303 2 -26.3303 -23.1287 0 
305 2 -25.2007 -23.0924 0 
307 2 -24.071 -23.0555 0 
309 1 -22.9399 -23.0159 0 
311 1 -21.8092 -22.9765 0 
313 1 -20.6785 -22.9362 0 
315 1 -19.5485 -22.8954 0 
317 1 -18.4185 -22.8546 0 
319 1 -17.2891 -22.8129 0 
321 1 -16.1598 -22.7708 0 
323 1 -15.0305 -22.7283 0 
226 1 -13.3197 -23.643 0 
325 1 -13.9024 -22.6855 0 
327 1 -12.7743 -22.6418 0 
228 1 -12.1916 -23.5998 0 
329 1 -11.6461 -22.5985 0 
230 1 -11.064 -23.5578 0 
331 1 -10.5191 -22.5549 0 
232 1 -9.93681 -23.5144 0 
333 1 -9.39241 -22.5112 0 
234 1 -8.80997 -23.4708 0 
236 1 -7.68411 -23.4281 0 
238 1 -6.55866 -23.3854 0 
240 1 -5.43316 -23.3427 0 
242 1 -4.30861 -23.3006 0 
244 1 -3.18445 -23.2594 0 
246 1 -2.06075 -23.219 0 
248 1 -0.937781 -23.1795 0 
250 1 0.185116 -23.1414 0 
252 1 1.30768 -23.1044 0 
254 1 2.42978 -23.069 0 
256 1 3.55198 -23.0345 0 
258 1 4.67431 -23.0019 0 
260 1 5.79617 -22.9711 0 
262 1 6.918 -22.9422 0 
264 1 8.03994 -22.9149 0 
266 1 9.16255 -22.8884 0 
268 1 10.285 -22.8642 0 
270 1 11.4076 -22.8415 0 
272 1 12.5305 -22.8197 0 
274 1 13.6535 -22.7999 0 
276 1 14.7765 -22.7817 0 
278 1 15.8997 -22.7643 0 
280 1 17.0233 -22.7479 0 
282 1 18.1474 -22.733 0 
284 1 19.2719 -22.7189 0 
286 1 20.3965 -22.7061 0 
288 1 21.5211 -22.6942 0 
290 1 22.6464 -22.6827 0 
292 1 23.7719 -22.6721 0 
294 1 24.8973 -22.662 0 
297 2 26.5987 -23.6355 0 
296 2 26.0228 -22.6533 0 
299 2 27.7248 -23.6273 0 
298 2 27.149 -22.6452 0 
300 2 28.2755 -22.6376 0 
302 2 -26.9167 -22.1747 0 
304 2 -25.7871 -22.1385 0 
306 2 -24.6574 -22.1018 0 
308 1 -23.5267 -22.0631 0 
310 1 -22.3957 -22.0233 0 
312 1 -21.265 -21.9828 0 
314 1 -20.1345 -21.9413 0 
316 1 -19.004 -21.9003 0 
318 1 -17.874 -21.8581 0 
320 1 -16.7444 -21.8157 0 
322 1 -15.6148 -21.7728 0 
324 1 -14.486 -21.7286 0 
326 1 -13.358 -21.6849 0 
328 1 -12.2295 -21.6408 0 
330 1 -11.1015 -21.596 0 
332 1 -9.97417 -21.5516 0 
334 1 -8.84757 -21.5071 0 
335 1 -8.26558 -22.4667 0 
336 1 -7.72127 -21.4615 0 
337 1 -7.1396 -22.4231 0 
338 1 -6.59561 -21.4171 0 
339 1 -6.01416 -22.3797 0 
340 1 -5.47065 -21.3724 0 
341 1 -4.88952 -22.336 0 
343 1 -3.76532 -22.2937 0 
345 1 -2.64127 -22.2523 0 
347 1 -1.51799 -22.2113 0 
349 1 -0.395007 -22.172 0 
351 1 0.727548 -22.1342 0 
353 1 1.8501 -22.0976 0 
355 1 2.97233 -22.0626 0 
357 1 4.09473 -22.0288 0 
359 1 5.21707 -21.9967 0 
361 1 6.33919 -21.9667 0 
363 1 7.46129 -21.9386 0 
365 1 8.58347 -21.912 0 
367 1 9.70615 -21.8865 0 
369 1 10.829 -21.8631 0 
371 1 11.9518 -21.841 0 
373 1 13.075 -21.8201 0 
375 1 14.1982 -21.8014 0 
377 1 15.3216 -21.784 0 
379 1 16.4454 -21.7673 0 
381 1 17.5698 -21.7523 0 
383 1 18.6945 -21.7378 0 
385 1 19.8192 -21.7246 0 
387 1 20.944 -21.7123 0 
389 1 22.0695 -21.7012 0 
391 1 23.1955 -21.6904 0 
393 1 24.321 -21.6802 0 
395 2 25.4466 -21.6709 0 
397 2 26.573 -21.6629 0 
399 2 27.6998 -21.6554 0 
401 2 -27.5037 -21.2208 0 
403 2 -26.3741 -21.1849 0 
402 2 -26.9617 -20.2313 0 
405 2 -25.2445 -21.1483 0 
404 2 -25.8321 -20.1949 0 
407 2 -24.1147 -21.111 0 
409 1 -22.9831 -21.071 0 
411 1 -21.8519 -21.0302 0 
413 1 -20.7213 -20.9885 0 
415 1 -19.5904 -20.947 0 
417 1 -18.46 -20.9043 0 
419 1 -17.33 -20.8612 0 
421 1 -16.2004 -20.8182 0 
423 1 -15.0714 -20.7735 0 
425 1 -13.9421 -20.7286 0 
427 1 -12.8135 -20.6842 0 
429 1 -11.6853 -20.6386 0 
431 1 -10.5573 -20.5929 0 
433 1 -9.43016 -20.5475 0 
435 1 -8.30402 -20.5016 0 
437 1 -7.17797 -20.4555 0 
439 1 -6.05252 -20.4097 0 
342 1 -4.34606 -21.3288 0 
441 1 -4.92752 -20.3647 0 
344 1 -3.22192 -21.2864 0 
443 1 -3.80322 -20.321 0 
346 1 -2.09844 -21.2438 0 
445 1 -2.67968 -20.2776 0 
348 1 -0.975201 -21.2032 0 
447 1 -1.55609 -20.2352 0 
350 1 0.147893 -21.164 0 
352 1 1.27033 -21.1265 0 
354 1 2.39257 -21.0903 0 
356 1 3.51468 -21.0559 0 
358 1 4.63675 -21.0227 0 
360 1 5.75918 -20.9916 0 
362 1 6.8817 -20.9622 0 
364 1 8.00416 -20.9349 0 
366 1 9.12688 -20.9091 0 
368 1 10.2501 -20.8848 0 
370 1 11.3732 -20.8621 0 
372 1 12.4966 -20.8409 0 
374 1 13.6204 -20.8212 0 
376 1 14.7439 -20.8035 0 
378 1 15.8678 -20.7867 0 
380 1 16.9925 -20.7711 0 
382 1 18.1172 -20.7567 0 
384 1 19.2421 -20.7431 0 
386 1 20.3671 -20.7306 0 
388 1 21.4928 -20.7192 0 
390 1 22.6187 -20.709 0 
392 1 23.7448 -20.6982 0 
394 1 24.8708 -20.689 0 
396 2 25.9969 -20.6804 0 
398 2 27.1238 -20.673 0 
400 2 28.251 -20.6661 0 
501 2 -27.5497 -19.2779 0 
503 2 -26.4202 -19.2417 0 
505 2 -25.2906 -19.2049 0 
406 2 -24.7023 -20.1579 0 
507 2 -24.1608 -19.1673 0 
408 1 -23.5713 -20.119 0 
509 1 -23.0287 -19.1263 0 
410 1 -22.44 -20.0783 0 
511 1 -21.8976 -19.0845 0 
412 1 -21.309 -20.0362 0 
513 1 -20.766 -19.0421 0 
414 1 -20.1778 -19.9943 0 
416 1 -19.0473 -19.9513 0 
418 1 -17.9165 -19.9077 0 
420 1 -16.786 -19.864 0 
422 1 -15.6569 -19.8191 0 
424 1 -14.5276 -19.774 0 
426 1 -13.3983 -19.7281 0 
428 1 -12.27 -19.6819 0 
430 1 -11.1416 -19.6356 0 
432 1 -10.0138 -19.5889 0 
434 1 -8.88686 -19.5421 0 
436 1 -7.76059 -19.4953 0 
438 1 -6.63492 -19.4482 0 
440 1 -5.50955 -19.4017 0 
442 1 -4.38458 -19.3562 0 
444 1 -3.26064 -19.3116 0 
446 1 -2.13709 -19.2682 0 
448 1 -1.01359 -19.2258 0 
449 1 -0.432984 -20.1948 0 
450 1 0.109468 -19.1856 0 
451 1 0.689865 -20.1557 0 
452 1 1.23231 -19.1466 0 
453 1 1.81234 -20.1183 0 
454 1 2.35477 -19.1099 0 
455 1 2.93476 -20.0829 0 
456 1 3.47695 -19.0748 0 
457 1 4.05698 -20.0486 0 
459 1 5.17924 -20.0165 0 
461 1 6.30174 -19.9863 0 
463 1 7.42457 -19.9578 0 
465 1 8.54768 -19.9315 0 
467 1 9.67082 -19.9069 0 
469 1 10.7941 -19.8834 0 
471 1 11.918 -19.8617 0 
473 1 13.042 -19.8415 0 
475 1 14.1661 -19.823 0 
477 1 15.2903 -19.8059 0 
479 1 16.415 -19.7898 0 
481 1 17.5397 -19.7751 0 
483 1 18.6647 -19.7617 0 
485 1 19.7899 -19.7488 0 
487 1 20.9158 -19.7374 0 
489 1 22.0419 -19.7265 0 
491 1 23.1678 -19.7165 0 
493 1 24.2943 -19.7067 0 
495 2 25.4205 -19.6978 0 
497 2 26.5477 -19.6905 0 
499 2 27.6751 -19.6838 0 
502 2 -27.0088 -18.2886 0 
504 2 -25.8793 -18.252 0 
506 2 -24.7497 -18.2147 0 
508 1 -23.6184 -18.175 0 
510 1 -22.4869 -18.1328 0 
512 1 -21.3554 -18.0905 0 
514 1 -20.224 -18.0472 0 
515 1 -19.6349 -18.9987 0 
516 1 -19.0931 -18.0027 0 
517 1 -18.5044 -18.955 0 
518 1 -17.962 -17.9588 0 
519 1 -17.3736 -18.911 0 
520 1 -16.8313 -17.913 0 
521 1 -16.2434 -18.8655 0 
523 1 -15.1136 -18.8201 0 
525 1 -13.9844 -18.7738 0 
527 1 -12.8553 -18.7262 0 
529 1 -11.7264 -18.6793 0 
531 1 -10.5983 -18.6318 0 
533 1 -9.47074 -18.5838 0 
535 1 -8.34358 -18.5359 0 
537 1 -7.21748 -18.4875 0 
539 1 -6.09185 -18.4401 0 
541 1 -4.96653 -18.3931 0 
543 1 -3.84195 -18.3464 0 
545 1 -2.71799 -18.3013 0 
547 1 -1.59473 -18.2575 0 
549 1 -0.47136 -18.2155 0 
551 1 0.651532 -18.1756 0 
553 1 1.77424 -18.1373 0 
555 1 2.8965 -18.1009 0 
557 1 4.01878 -18.0668 0 
458 1 4.59956 -19.0414 0 
559 1 5.1419 -18.0346 0 
460 1 5.72249 -19.0106 0 
561 1 6.26477 -18.0043 0 
462 1 6.84508 -18.981 0 
563 1 7.38781 -17.976 0 
464 1 7.96774 -18.9539 0 
565 1 8.51092 -17.95 0 
466 1 9.09094 -18.9284 0 
567 1 9.63479 -17.9254 0 
468 1 10.2144 -18.9047 0 
569 1 10.7588 -17.9026 0 
470 1 11.3381 -18.8825 0 
472 1 12.4624 -18.8616 0 
474 1 13.5868 -18.8428 0 
476 1 14.7113 -18.8252 0 
478 1 15.8363 -18.8087 0 
480 1 16.9617 -18.7933 0 
482 1 18.0873 -18.78 0 
484 1 19.2128 -18.7674 0 
486 1 20.3387 -18.7557 0 
488 1 21.4647 -18.7444 0 
490 1 22.5912 -18.7342 0 
492 1 23.7179 -18.7247 0 
494 1 24.8446 -18.7157 0 
496 2 25.9714 -18.7078 0 
498 2 27.0991 -18.7012 0 
500 2 28.2271 -18.6951 0 
601 2 -27.5979 -17.3354 0 
603 2 -26.4686 -17.2992 0 
605 2 -25.3391 -17.2621 0 
607 2 -24.2094 -17.2244 0 
609 1 -23.0774 -17.1821 0 
611 1 -21.9454 -17.1393 0 
613 1 -20.8139 -17.0963 0 
615 1 -19.6827 -17.0517 0 
617 1 -18.5512 -17.0072 0 
619 1 -17.4204 -16.9615 0 
522 1 -15.7005 -17.867 0 
621 1 -16.2893 -16.915 0 
524 1 -14.5707 -17.8203 0 
623 1 -15.1586 -16.8673 0 
526 1 -13.4414 -17.7723 0 
625 1 -14.0289 -16.8191 0 
528 1 -12.3118 -17.7243 0 
627 1 -12.8989 -16.7707 0 
530 1 -11.183 -17.6755 0 
532 1 -10.0552 -17.6268 0 
534 1 -8.92783 -17.578 0 
536 1 -7.80073 -17.5282 0 
538 1 -6.67414 -17.4792 0 
540 1 -5.54886 -17.4309 0 
542 1 -4.42438 -17.3828 0 
544 1 -3.29993 -17.3357 0 
546 1 -2.17603 -17.2897 0 
548 1 -1.05268 -17.2461 0 
550 1 0.0702586 -17.2045 0 
552 1 1.19278 -17.1651 0 
554 1 2.31541 -17.1275 0 
556 1 3.43825 -17.0917 0 
558 1 4.56094 -17.0589 0 
560 1 5.68403 -17.0271 0 
562 1 6.80698 -16.9982 0 
564 1 7.93013 -16.9713 0 
566 1 9.05383 -16.9465 0 
568 1 10.178 -16.9228 0 
571 1 11.8833 -17.8818 0 
570 1 11.3028 -16.9017 0 
573 1 13.0078 -17.8623 0 
572 1 12.4279 -16.8817 0 
575 1 14.1325 -17.8445 0 
574 1 13.5533 -16.8633 0 
577 1 15.2576 -17.8279 0 
576 1 14.6788 -16.8466 0 
579 1 16.3831 -17.8121 0 
578 1 15.8045 -16.8308 0 
581 1 17.5092 -17.7983 0 
580 1 16.9305 -16.8166 0 
583 1 18.6353 -17.7855 0 
582 1 18.057 -16.8037 0 
585 1 19.7611 -17.774 0 
584 1 19.1835 -16.7916 0 
587 1 20.8874 -17.7628 0 
586 1 20.3099 -16.781 0 
589 1 22.0142 -17.7524 0 
588 1 21.4368 -16.7705 0 
591 1 23.141 -17.7425 0 
590 1 22.564 -16.7603 0 
593 1 24.2681 -17.7337 0 
592 1 23.6916 -16.7516 0 
595 2 25.3948 -17.725 0 
594 1 24.819 -16.7429 0 
596 2 25.9465 -16.7357 0 
597 2 26.5229 -17.7186 0 
598 2 27.0751 -16.7299 0 
599 2 27.6512 -17.7126 0 
600 2 28.2039 -16.7246 0 
602 2 -27.0583 -16.3463 0 
604 2 -25.929 -16.3096 0 
606 2 -24.7995 -16.2721 0 
608 1 -23.6687 -16.2319 0 
610 1 -22.5373 -16.1893 0 
612 1 -21.4052 -16.1458 0 
614 1 -20.2737 -16.1016 0 
616 1 -19.1419 -16.0567 0 
618 1 -18.0105 -16.0105 0 
620 1 -16.8794 -15.9639 0 
622 1 -15.7483 -15.9162 0 
624 1 -14.6168 -15.8669 0 
626 1 -13.4861 -15.8178 0 
628 1 -12.3563 -15.7674 0 
629 1 -11.7694 -16.721 0 
630 1 -11.2271 -15.7164 0 
631 1 -10.6403 -16.6705 0 
632 1 -10.0978 -15.6652 0 
633 1 -9.51215 -16.621 0 
634 1 -8.96982 -15.6136 0 
635 1 -8.38481 -16.5704 0 
637 1 -7.25803 -16.5196 0 
639 1 -6.13207 -16.4694 0 
641 1 -5.00697 -16.4199 0 
643 1 -3.88243 -16.3712 0 
645 1 -2.75858 -16.3234 0 
647 1 -1.63516 -16.2773 0 
649 1 -0.512081 -16.2339 0 
651 1 0.610627 -16.1929 0 
653 1 1.73341 -16.1541 0 
655 1 2.85642 -16.1174 0 
657 1 3.97972 -16.0825 0 
659 1 5.10265 -16.0503 0 
661 1 6.22614 -16.0203 0 
663 1 7.34968 -15.9926 0 
665 1 8.4735 -15.9672 0 
667 1 9.59788 -15.9433 0 
669 1 10.723 -15.9211 0 
671 1 11.8481 -15.9009 0 
673 1 12.9737 -15.8824 0 
675 1 14.0998 -15.865 0 
677 1 15.2259 -15.8488 0 
679 1 16.352 -15.8343 0 
681 1 17.4786 -15.8215 0 
683 1 18.6053 -15.8097 0 
685 1 19.7325 -15.7985 0 
687 1 20.8596 -15.7883 0 
689 1 21.9869 -15.7783 0 
691 1 23.1146 -15.7692 0 
693 1 24.2423 -15.7608 0 
695 2 25.3699 -15.7527 0 
697 2 26.4989 -15.7471 0 
699 2 27.6281 -15.742 0 
701 2 -27.6483 -15.3934 0 
703 2 -26.5193 -15.357 0 
705 2 -25.3901 -15.3199 0 
707 2 -24.2607 -15.282 0 
709 1 -23.1288 -15.2392 0 
711 1 -21.9972 -15.196 0 
713 1 -20.8654 -15.1516 0 
715 1 -19.7338 -15.1069 0 
717 1 -18.6021 -15.0608 0 
719 1 -17.4702 -15.0134 0 
721 1 -16.3384 -14.9657 0 
723 1 -15.2069 -14.9168 0 
725 1 -14.0758 -14.8665 0 
727 1 -12.9453 -14.8153 0 
729 1 -11.815 -14.7633 0 
731 1 -10.6854 -14.7116 0 
733 1 -9.55658 -14.6582 0 
636 1 -7.84275 -15.5614 0 
735 1 -8.42865 -14.6047 0 
638 1 -6.71613 -15.5093 0 
737 1 -7.30118 -14.5513 0 
640 1 -5.59035 -15.458 0 
739 1 -6.17476 -14.4979 0 
642 1 -4.46533 -15.4077 0 
644 1 -3.34117 -15.3579 0 
646 1 -2.21779 -15.3097 0 
648 1 -1.09433 -15.2645 0 
650 1 0.0287898 -15.2213 0 
652 1 1.15181 -15.1806 0 
654 1 2.27475 -15.1426 0 
656 1 3.39782 -15.1069 0 
658 1 4.52129 -15.0731 0 
660 1 5.6452 -15.0424 0 
662 1 6.76908 -15.0139 0 
664 1 7.89338 -14.9874 0 
666 1 9.01795 -14.9634 0 
668 1 10.1433 -14.9409 0 
670 1 11.2689 -14.9197 0 
672 1 12.3946 -14.9009 0 
674 1 13.5204 -14.8834 0 
676 1 14.6464 -14.8669 0 
678 1 15.7728 -14.8519 0 
680 1 16.8998 -14.8391 0 
682 1 18.0271 -14.8271 0 
684 1 19.1545 -14.8164 0 
686 1 20.2822 -14.8057 0 
688 1 21.4097 -14.7962 0 
690 1 22.5375 -14.7869 0 
692 1 23.6656 -14.7785 0 
694 1 24.794 -14.7709 0 
696 2 25.9226 -14.7642 0 
698 2 27.0521 -14.7592 0 
700 2 28.1818 -14.7547 0 
702 2 -27.11 -14.4044 0 
801 2 -27.7009 -13.4516 0 
704 2 -25.9811 -14.3676 0 
803 2 -26.5724 -13.4152 0 
706 2 -24.852 -14.3301 0 
805 2 -25.4437 -13.3781 0 
708 1 -23.721 -14.2895 0 
807 2 -24.3146 -13.3401 0 
710 1 -22.5898 -14.2463 0 
809 1 -23.1835 -13.2969 0 
712 1 -21.4583 -14.2023 0 
714 1 -20.3263 -14.1573 0 
716 1 -19.1946 -14.1115 0 
718 1 -18.0625 -14.0643 0 
720 1 -16.9301 -14.0161 0 
722 1 -15.7982 -13.9673 0 
724 1 -14.6665 -13.9167 0 
726 1 -13.5356 -13.8649 0 
728 1 -12.4045 -13.8123 0 
730 1 -11.274 -13.759 0 
732 1 -10.1447 -13.705 0 
734 1 -9.0159 -13.6499 0 
736 1 -7.88779 -13.5952 0 
738 1 -6.76053 -13.54 0 
740 1 -5.63449 -13.4848 0 
741 1 -5.0496 -14.4454 0 
742 1 -4.50952 -13.4311 0 
743 1 -3.92523 -14.3941 0 
744 1 -3.38524 -13.3787 0 
745 1 -2.80127 -14.3435 0 
746 1 -2.26117 -13.3283 0 
747 1 -1.67735 -14.296 0 
749 1 -0.553944 -14.2505 0 
751 1 0.569021 -14.2077 0 
753 1 1.69193 -14.1679 0 
755 1 2.81516 -14.1311 0 
757 1 3.93847 -14.0965 0 
759 1 5.06267 -14.0647 0 
761 1 6.18709 -14.035 0 
763 1 7.31167 -14.0081 0 
765 1 8.43653 -13.9828 0 
767 1 9.56184 -13.9605 0 
769 1 10.6877 -13.9389 0 
771 1 11.8142 -13.9195 0 
773 1 12.9407 -13.9016 0 
775 1 14.0673 -13.8849 0 
777 1 15.1939 -13.8696 0 
779 1 16.3213 -13.8565 0 
781 1 17.4491 -13.8444 0 
783 1 18.577 -13.8334 0 
785 1 19.7045 -13.8233 0 
787 1 20.8322 -13.8135 0 
789 1 21.9604 -13.8047 0 
791 1 23.089 -13.7963 0 
793 1 24.2177 -13.7885 0 
795 2 25.3462 -13.7811 0 
797 2 26.4761 -13.7764 0 
799 2 27.6062 -13.772 0 
802 2 -27.164 -12.4626 0 
804 2 -26.0357 -12.4259 0 
806 2 -24.9071 -12.3884 0 
808 1 -23.7771 -12.3478 0 
810 1 -22.6459 -12.3044 0 
811 1 -22.0519 -13.2534 0 
812 1 -21.5144 -12.2602 0 
813 1 -20.9201 -13.2086 0 
814 1 -20.3827 -12.2145 0 
815 1 -19.7882 -13.1626 0 
816 1 -19.2503 -12.1683 0 
817 1 -18.6559 -13.116 0 
818 1 -18.1178 -12.1205 0 
819 1 -17.5234 -13.068 0 
821 1 -16.3906 -13.0186 0 
823 1 -15.2586 -12.9684 0 
825 1 -14.1266 -12.9157 0 
827 1 -12.9951 -12.8628 0 
829 1 -11.8643 -12.8082 0 
831 1 -10.7345 -12.7532 0 
833 1 -9.60483 -12.6973 0 
835 1 -8.47564 -12.6406 0 
837 1 -7.34767 -12.5836 0 
839 1 -6.22082 -12.5265 0 
841 1 -5.09497 -12.4699 0 
843 1 -3.9698 -12.4149 0 
845 1 -2.84536 -12.3615 0 
748 1 -1.13788 -13.2806 0 
847 1 -1.72169 -12.3112 0 
849 1 -0.598563 -12.2641 0 
750 1 -0.0148353 -13.2355 0 
851 1 0.524602 -12.2203 0 
752 1 1.10843 -13.1938 0 
853 1 1.64799 -12.1802 0 
754 1 2.23215 -13.1556 0 
756 1 3.35575 -13.1197 0 
758 1 4.47982 -13.0871 0 
760 1 5.60434 -13.0562 0 
762 1 6.72958 -13.0283 0 
764 1 7.85474 -13.0026 0 
766 1 8.98039 -12.9795 0 
768 1 10.1063 -12.958 0 
770 1 11.2332 -12.9381 0 
772 1 12.3603 -12.92 0 
774 1 13.4873 -12.903 0 
776 1 14.6145 -12.8874 0 
778 1 15.7423 -12.8739 0 
780 1 16.8702 -12.8614 0 
782 1 17.9985 -12.8504 0 
784 1 19.1267 -12.84 0 
786 1 20.2548 -12.8304 0 
788 1 21.3831 -12.8217 0 
790 1 22.5118 -12.8136 0 
792 1 23.6408 -12.8061 0 
794 1 24.7701 -12.7991 0 
796 2 25.9 -12.7934 0 
798 2 27.0306 -12.7893 0 
800 2 28.1612 -12.7854 0 
901 2 -27.7557 -11.5099 0 
903 2 -26.6279 -11.4735 0 
905 2 -25.4997 -11.4364 0 
907 2 -24.3713 -11.3985 0 
909 1 -23.2404 -11.3556 0 
911 1 -22.1092 -11.3115 0 
913 1 -20.978 -11.2665 0 
915 1 -19.8461 -11.2209 0 
917 1 -18.7139 -11.1734 0 
820 1 -16.9852 -12.0714 0 
919 1 -17.5814 -11.1247 0 
822 1 -15.8523 -12.0208 0 
921 1 -16.4484 -11.0746 0 
824 1 -14.7204 -11.9685 0 
923 1 -15.3159 -11.0221 0 
826 1 -13.5882 -11.9147 0 
828 1 -12.4568 -11.8595 0 
830 1 -11.3256 -11.8029 0 
832 1 -10.195 -11.746 0 
834 1 -9.06512 -11.6881 0 
836 1 -7.93613 -11.6291 0 
838 1 -6.80831 -11.57 0 
840 1 -5.68189 -11.511 0 
842 1 -4.5563 -11.4533 0 
844 1 -3.43159 -11.3971 0 
846 1 -2.30737 -11.3434 0 
848 1 -1.18381 -11.2933 0 
850 1 -0.0604972 -11.2472 0 
852 1 1.0629 -11.2051 0 
855 1 2.77152 -12.1428 0 
854 1 2.18681 -11.1662 0 
857 1 3.89584 -12.109 0 
856 1 3.31156 -11.1308 0 
859 1 5.02059 -12.0774 0 
858 1 4.4363 -11.0983 0 
861 1 6.14587 -12.0486 0 
860 1 5.56156 -11.0687 0 
863 1 7.27114 -12.0224 0 
862 1 6.68728 -11.0418 0 
865 1 8.39751 -11.9988 0 
864 1 7.81386 -11.018 0 
867 1 9.52415 -11.9768 0 
869 1 10.6514 -11.9569 0 
871 1 11.7791 -11.9384 0 
873 1 12.9065 -11.9211 0 
875 1 14.0342 -11.9055 0 
877 1 15.1628 -11.8916 0 
879 1 16.2912 -11.8786 0 
881 1 17.4198 -11.8674 0 
883 1 18.5485 -11.8568 0 
885 1 19.6774 -11.8473 0 
887 1 20.8063 -11.8386 0 
889 1 21.9354 -11.8307 0 
891 1 23.0648 -11.8234 0 
893 1 24.1943 -11.8168 0 
895 2 25.3239 -11.8103 0 
897 2 26.4549 -11.8064 0 
899 2 27.586 -11.8028 0 
902 2 -27.2202 -10.5209 0 
904 2 -26.0925 -10.4842 0 
906 2 -24.9646 -10.4468 0 
908 1 -23.8349 -10.4065 0 
910 1 -22.7045 -10.3632 0 
912 1 -21.5737 -10.3183 0 
914 1 -20.4425 -10.2733 0 
916 1 -19.3109 -10.2267 0 
918 1 -18.1787 -10.1785 0 
920 1 -17.0461 -10.129 0 
922 1 -15.9133 -10.0766 0 
924 1 -14.7806 -10.0232 0 
925 1 -14.1832 -10.9684 0 
926 1 -13.6475 -9.96752 0 
927 1 -13.0507 -10.9123 0 
928 1 -12.5144 -9.90941 0 
929 1 -11.9187 -10.8551 0 
930 1 -11.3818 -9.8499 0 
931 1 -10.787 -10.7966 0 
933 1 -9.65606 -10.7373 0 
935 1 -8.52642 -10.677 0 
937 1 -7.39759 -10.6157 0 
939 1 -6.27003 -10.5542 0 
941 1 -5.1437 -10.4936 0 
943 1 -4.0186 -10.4343 0 
945 1 -2.89445 -10.3775 0 
947 1 -1.77056 -10.3241 0 
949 1 -0.646761 -10.2747 0 
951 1 0.476945 -10.23 0 
953 1 1.60099 -10.1899 0 
955 1 2.72573 -10.153 0 
957 1 3.85111 -10.1192 0 
959 1 4.97714 -10.0888 0 
961 1 6.1035 -10.0612 0 
963 1 7.23044 -10.0368 0 
965 1 8.35797 -10.0142 0 
866 1 8.94115 -10.9954 0 
967 1 9.48652 -9.99343 0 
868 1 10.0691 -10.9754 0 
969 1 10.6149 -9.97445 0 
870 1 11.1971 -10.9565 0 
971 1 11.7439 -9.95704 0 
872 1 12.3254 -10.9392 0 
973 1 12.873 -9.94102 0 
874 1 13.4538 -10.9232 0 
975 1 14.0026 -9.92682 0 
876 1 14.5826 -10.9096 0 
977 1 15.1318 -9.9137 0 
878 1 15.7117 -10.8962 0 
979 1 16.2618 -9.90154 0 
880 1 16.8411 -10.8842 0 
981 1 17.392 -9.89039 0 
882 1 17.9703 -10.8738 0 
983 1 18.5218 -9.88129 0 
884 1 19.0999 -10.8644 0 
985 1 19.6517 -9.87245 0 
886 1 20.2294 -10.8556 0 
987 1 20.7821 -9.86512 0 
888 1 21.3593 -10.8481 0 
890 1 22.4888 -10.8406 0 
989 1 21.9124 -9.85761 0 
892 1 23.6185 -10.834 0 
991 1 23.0426 -9.85128 0 
894 1 24.7485 -10.8279 0 
993 1 24.173 -9.84525 0 
896 2 25.8793 -10.8234 0 
995 2 25.3037 -9.84035 0 
898 2 27.0108 -10.8201 0 
997 2 26.4357 -9.83726 0 
900 2 28.1423 -10.817 0 
999 2 27.5677 -9.8344 0 
1001 2 -27.8125 -9.56805 0 
1003 2 -26.6854 -9.5318 0 
1005 2 -25.5581 -9.49477 0 
1007 2 -24.4305 -9.45693 0 
1009 1 -23.3001 -9.41458 0 
1011 1 -22.1701 -9.37026 0 
1013 1 -21.0393 -9.32567 0 
1015 1 -19.908 -9.27975 0 
1017 1 -18.7767 -9.23239 0 
1019 1 -17.6448 -9.18356 0 
1021 1 -16.5125 -9.13209 0 
1023 1 -15.3793 -9.07832 0 
1025 1 -14.246 -9.02373 0 
1027 1 -13.1125 -8.96588 0 
1029 1 -11.9791 -8.90583 0 
932 1 -10.2499 -9.78913 0 
1031 1 -10.8458 -8.84376 0 
934 1 -9.11882 -9.72692 0 
1033 1 -9.71354 -8.7799 0 
936 1 -7.98918 -9.66407 0 
1035 1 -8.58256 -8.71459 0 
938 1 -6.86056 -9.59993 0 
940 1 -5.73349 -9.53617 0 
942 1 -4.6075 -9.47348 0 
944 1 -3.48289 -9.41259 0 
946 1 -2.35915 -9.3556 0 
948 1 -1.23552 -9.30311 0 
950 1 -0.111472 -9.25573 0 
952 1 1.01291 -9.21342 0 
954 1 2.13785 -9.17545 0 
956 1 3.26404 -9.14061 0 
958 1 4.39084 -9.10935 0 
960 1 5.51788 -9.08093 0 
962 1 6.64576 -9.05574 0 
964 1 7.77423 -9.03256 0 
966 1 8.90355 -9.01171 0 
968 1 10.0332 -8.99214 0 
970 1 11.1628 -8.97475 0 
972 1 12.2925 -8.95822 0 
974 1 13.4225 -8.94411 0 
976 1 14.5523 -8.93047 0 
978 1 15.6823 -8.91901 0 
980 1 16.8131 -8.90758 0 
982 1 17.9439 -8.89739 0 
984 1 19.0742 -8.88922 0 
986 1 20.2051 -8.8818 0 
988 1 21.3359 -8.87493 0 
990 1 22.4671 -8.86825 0 
992 1 23.5981 -8.86294 0 
994 1 24.7294 -8.85811 0 
996 2 25.8608 -8.85435 0 
998 2 26.9933 -8.85174 0 
1000 2 28.1257 -8.84931 0 
1002 2 -27.2783 -8.57905 0 
1101 2 -27.8711 -7.62598 0 
1004 2 -26.1516 -8.54247 0 
1103 2 -26.7449 -7.58983 0 
1006 2 -25.0246 -8.50509 0 
1105 2 -25.6186 -7.5529 0 
1008 1 -23.8957 -8.46538 0 
1107 2 -24.492 -7.51516 0 
1010 1 -22.7664 -8.422 0 
1012 1 -21.6363 -8.37773 0 
1014 1 -20.5058 -8.33293 0 
1016 1 -19.3749 -8.28594 0 
1018 1 -18.2438 -8.23789 0 
1020 1 -17.1123 -8.18756 0 
1022 1 -15.9799 -8.13498 0 
1024 1 -14.8465 -8.08026 0 
1026 1 -13.713 -8.02352 0 
1028 1 -12.5793 -7.96338 0 
1030 1 -11.4458 -7.90139 0 
1032 1 -10.3123 -7.83641 0 
1034 1 -9.17923 -7.76879 0 
1036 1 -8.0479 -7.69973 0 
1037 1 -7.45307 -8.64855 0 
1038 1 -6.91819 -7.63007 0 
1039 1 -6.32463 -8.58118 0 
1041 1 -5.19818 -8.51508 0 
1043 1 -4.07331 -8.44983 0 
1045 1 -2.94934 -8.38836 0 
1047 1 -1.82545 -8.33225 0 
1049 1 -0.701188 -8.28198 0 
1051 1 0.423599 -8.23727 0 
1053 1 1.54914 -8.19768 0 
1055 1 2.67578 -8.16204 0 
1057 1 3.80351 -8.12992 0 
1059 1 4.93155 -8.10081 0 
1061 1 6.06038 -8.07489 0 
1063 1 7.18964 -8.05133 0 
1065 1 8.31961 -8.02984 0 
1067 1 9.44997 -8.01018 0 
1069 1 10.5806 -7.99214 0 
1071 1 11.7109 -7.97553 0 
1073 1 12.8416 -7.96114 0 
1075 1 13.9721 -7.94748 0 
1077 1 15.103 -7.93547 0 
1079 1 16.234 -7.92492 0 
1081 1 17.3652 -7.91436 0 
1083 1 18.4966 -7.9054 0 
1085 1 19.628 -7.89865 0 
1087 1 20.7595 -7.89175 0 
1089 1 21.8911 -7.88589 0 
1091 1 23.023 -7.88001 0 
1093 1 24.1547 -7.87545 0 
1095 2 25.2861 -7.87134 0 
1097 2 26.419 -7.86899 0 
1099 2 27.5519 -7.8668 0 
1102 2 -27.3381 -6.63684 0 
1104 2 -26.2124 -6.60035 0 
1106 2 -25.0865 -6.56307 0 
1108 1 -23.9593 -6.52358 0 
1109 1 -23.3632 -7.47351 0 
1110 1 -22.8314 -6.48136 0 
1111 1 -22.2338 -7.42967 0 
1112 1 -21.7026 -6.43774 0 
1113 1 -21.1039 -7.3854 0 
1114 1 -20.5737 -6.39255 0 
1115 1 -19.9741 -7.33956 0 
1116 1 -19.4442 -6.34623 0 
1117 1 -18.8436 -7.29212 0 
1119 1 -17.7128 -7.24282 0 
1121 1 -16.5811 -7.19156 0 
1123 1 -15.4488 -7.13797 0 
1125 1 -14.3158 -7.0818 0 
1127 1 -13.1824 -7.02258 0 
1129 1 -12.0485 -6.96037 0 
1131 1 -10.9146 -6.89568 0 
1133 1 -9.7802 -6.82723 0 
1135 1 -8.64687 -6.75522 0 
1137 1 -7.5151 -6.68231 0 
1139 1 -6.38543 -6.60772 0 
1040 1 -5.79005 -7.55918 0 
1141 1 -5.2582 -6.53297 0 
1042 1 -4.66447 -7.48981 0 
1143 1 -4.13329 -6.46078 0 
1044 1 -3.5402 -7.42312 0 
1046 1 -2.41629 -7.36249 0 
1048 1 -1.29209 -7.30858 0 
1050 1 -0.16723 -7.26136 0 
1052 1 0.958764 -7.2197 0 
1054 1 2.08591 -7.183 0 
1056 1 3.21423 -7.15007 0 
1058 1 4.34352 -7.12045 0 
1060 1 5.47368 -7.09407 0 
1062 1 6.60435 -7.07012 0 
1064 1 7.7356 -7.04833 0 
1066 1 8.8668 -7.02799 0 
1068 1 9.99808 -7.00992 0 
1070 1 11.1295 -6.99275 0 
1072 1 12.261 -6.97784 0 
1074 1 13.392 -6.9645 0 
1076 1 14.5236 -6.95215 0 
1078 1 15.6558 -6.94139 0 
1080 1 16.7877 -6.93146 0 
1082 1 17.9196 -6.92195 0 
1084 1 19.0517 -6.91496 0 
1086 1 20.1835 -6.90843 0 
1088 1 21.3157 -6.90268 0 
1090 1 22.4479 -6.89754 0 
1092 1 23.5803 -6.89264 0 
1094 1 24.7127 -6.88884 0 
1096 2 25.8451 -6.88616 0 
1098 2 26.9784 -6.88422 0 
1100 2 28.1116 -6.88241 0 
1201 2 -27.9311 -5.68349 0 
1203 2 -26.806 -5.64742 0 