ITEM: TIMESTEP
3200
ITEM: NUMBER OF ATOMS
2850
ITEM: BOX BOUNDS ff ff pp
-42.092 42.092
-42.092 42.092
-0.280613 0.280613
ITEM: ATOMS id type xu yu zu 
1 2 -27.3398 -28.9988 0 
3 2 -26.2107 -28.9642 0 
5 2 -25.0816 -28.9291 0 
7 2 -23.9525 -28.8936 0 
9 2 -22.8235 -28.8577 0 
11 2 -21.6944 -28.8213 0 
13 2 -20.5655 -28.7844 0 
15 2 -19.4366 -28.7472 0 
17 2 -18.3079 -28.7095 0 
19 2 -17.1793 -28.6715 0 
21 2 -16.0508 -28.6331 0 
23 2 -14.9226 -28.5944 0 
25 2 -13.7947 -28.5554 0 
27 2 -12.667 -28.5163 0 
29 2 -11.5396 -28.477 0 
31 2 -10.4126 -28.4376 0 
33 2 -9.28592 -28.3982 0 
35 2 -8.15967 -28.3589 0 
37 2 -7.03386 -28.3198 0 
39 2 -5.90848 -28.281 0 
2 2 -26.7941 -28.0086 0 
4 2 -25.6649 -27.9736 0 
6 2 -24.5357 -27.9381 0 
8 2 -23.4065 -27.902 0 
10 2 -22.2773 -27.8656 0 
12 2 -21.1481 -27.8286 0 
14 2 -20.019 -27.7912 0 
16 2 -18.89 -27.7533 0 
18 2 -17.7611 -27.715 0 
20 2 -16.6324 -27.6763 0 
22 2 -15.5039 -27.6373 0 
24 2 -14.3755 -27.5979 0 
26 2 -13.2475 -27.5582 0 
28 2 -12.1197 -27.5183 0 
30 2 -10.9923 -27.4783 0 
32 2 -9.86522 -27.4382 0 
34 2 -8.73856 -27.3981 0 
36 2 -7.61233 -27.3581 0 
38 2 -6.48656 -27.3184 0 
40 2 -5.36126 -27.2789 0 
41 2 -4.78357 -28.2426 0 
42 2 -4.23645 -27.24 0 
43 2 -3.65912 -28.2046 0 
44 2 -3.11213 -27.2015 0 
45 2 -2.53513 -28.1673 0 
46 2 -1.98828 -27.1638 0 
47 2 -1.41159 -28.1307 0 
48 2 -0.8649 -27.1269 0 
49 2 -0.288464 -28.095 0 
51 2 0.834263 -28.0602 0 
53 2 1.95663 -28.0264 0 
55 2 3.07869 -27.9937 0 
57 2 4.20048 -27.9622 0 
59 2 5.32207 -27.9319 0 
61 2 6.4435 -27.9029 0 
63 2 7.56483 -27.8752 0 
65 2 8.68613 -27.8488 0 
67 2 9.80743 -27.8237 0 
69 2 10.9288 -27.8 0 
71 2 12.0503 -27.7775 0 
73 2 13.1719 -27.7563 0 
75 2 14.2937 -27.7363 0 
77 2 15.4157 -27.7174 0 
79 2 16.538 -27.6997 0 
81 2 17.6605 -27.683 0 
83 2 18.7832 -27.6673 0 
85 2 19.9063 -27.6526 0 
87 2 21.0296 -27.6388 0 
89 2 22.1532 -27.6258 0 
91 2 23.2771 -27.6136 0 
93 2 24.4012 -27.6022 0 
95 2 25.5256 -27.5914 0 
97 2 26.6503 -27.5812 0 
99 2 27.7752 -27.5717 0 
101 2 -27.378 -27.0533 0 
103 2 -26.2487 -27.0183 0 
102 2 -26.833 -26.0633 0 
105 2 -25.1194 -26.9828 0 
104 2 -25.7037 -26.0278 0 
107 2 -23.9901 -26.9468 0 
106 2 -24.5742 -25.9918 0 
109 2 -22.8607 -26.9102 0 
108 1 -23.4446 -25.9554 0 
111 2 -21.7314 -26.8732 0 
113 2 -20.6021 -26.8357 0 
115 2 -19.4729 -26.7977 0 
117 2 -18.3437 -26.7591 0 
119 2 -17.2147 -26.7202 0 
121 2 -16.0858 -26.6808 0 
123 2 -14.9572 -26.641 0 
125 2 -13.8287 -26.6009 0 
127 2 -12.7006 -26.5605 0 
129 2 -11.5727 -26.5198 0 
131 2 -10.4452 -26.479 0 
133 2 -9.31813 -26.4382 0 
135 2 -8.19146 -26.3973 0 
137 2 -7.06526 -26.3566 0 
139 2 -5.93954 -26.3162 0 
141 2 -4.81433 -26.2762 0 
143 2 -3.68963 -26.2366 0 
145 2 -2.56545 -26.1977 0 
147 2 -1.44177 -26.1596 0 
50 2 0.258046 -27.0909 0 
149 2 -0.318563 -26.1224 0 
52 2 1.38059 -27.056 0 
151 2 0.804196 -26.0862 0 
54 2 2.50279 -27.0222 0 
153 2 1.92656 -26.0512 0 
56 2 3.62468 -26.9896 0 
155 2 3.04857 -26.0174 0 
58 2 4.74633 -26.9582 0 
157 2 4.1703 -25.9849 0 
60 2 5.86779 -26.9282 0 
159 2 5.2918 -25.9538 0 
62 2 6.98913 -26.8996 0 
64 2 8.11041 -26.8723 0 
66 2 9.23169 -26.8465 0 
68 2 10.353 -26.822 0 
70 2 11.4745 -26.7989 0 
72 2 12.596 -26.7771 0 
74 2 13.7178 -26.7566 0 
76 2 14.8398 -26.7373 0 
78 2 15.962 -26.7192 0 
80 2 17.0845 -26.7023 0 
82 2 18.2073 -26.6863 0 
84 2 19.3304 -26.6714 0 
86 2 20.4538 -26.6575 0 
88 2 21.5774 -26.6444 0 
90 2 22.7014 -26.6321 0 
92 2 23.8256 -26.6206 0 
94 2 24.9501 -26.6098 0 
96 2 26.0749 -26.5996 0 
98 2 27.2 -26.5901 0 
100 2 28.3253 -26.5811 0 
201 2 -27.4179 -25.1085 0 
203 2 -26.2885 -25.0731 0 
205 2 -25.159 -25.0372 0 
207 2 -24.0295 -25.0007 0 
209 1 -22.8992 -24.9634 0 
110 1 -22.3146 -25.9179 0 
211 1 -21.7694 -24.9242 0 
112 1 -21.1852 -25.8793 0 
213 1 -20.6395 -24.8858 0 
114 1 -20.0556 -25.8417 0 
215 1 -19.5099 -24.8469 0 
116 1 -18.9261 -25.8022 0 
217 1 -18.3805 -24.8057 0 
118 1 -17.7974 -25.7629 0 
120 1 -16.6683 -25.7235 0 
122 1 -15.5391 -25.6831 0 
124 1 -14.4105 -25.6424 0 
126 1 -13.2823 -25.6015 0 
128 1 -12.1546 -25.5605 0 
130 1 -11.0271 -25.5189 0 
132 1 -9.89956 -25.4772 0 
134 1 -8.77267 -25.4356 0 
136 1 -7.64619 -25.3947 0 
138 1 -6.52026 -25.3529 0 
140 1 -5.39492 -25.3118 0 
142 1 -4.26992 -25.2717 0 
144 1 -3.14587 -25.2312 0 
146 1 -2.02248 -25.1919 0 
148 1 -0.8988 -25.1538 0 
150 1 0.224433 -25.1166 0 
152 1 1.34679 -25.0801 0 
154 1 2.46872 -25.0452 0 
156 1 3.59086 -25.0117 0 
158 1 4.71286 -24.9795 0 
160 1 5.83468 -24.949 0 
161 2 6.41316 -25.9242 0 
162 1 6.95643 -24.9197 0 
163 2 7.53443 -25.896 0 
164 1 8.07813 -24.8924 0 
165 2 8.65568 -25.8693 0 
167 2 9.77697 -25.844 0 
166 1 9.19961 -24.8666 0 
169 2 10.8984 -25.8202 0 
168 1 10.3211 -24.8426 0 
171 2 12.0199 -25.7978 0 
170 1 11.4429 -24.8194 0 
173 2 13.1416 -25.7768 0 
175 2 14.2636 -25.7571 0 
177 2 15.3858 -25.7386 0 
179 2 16.5083 -25.7213 0 
181 2 17.6311 -25.7052 0 
183 2 18.7543 -25.6901 0 
185 2 19.8777 -25.6759 0 
187 2 21.0014 -25.6627 0 
189 2 22.1254 -25.6504 0 
191 2 23.2498 -25.6388 0 
193 2 24.3744 -25.628 0 
195 2 25.4993 -25.6179 0 
197 2 26.6245 -25.6084 0 
199 2 27.75 -25.5994 0 
202 2 -26.8739 -24.1187 0 
204 2 -25.7444 -24.0828 0 
206 2 -24.6148 -24.0464 0 
208 1 -23.4841 -24.0089 0 
210 1 -22.3541 -23.9699 0 
212 1 -21.2234 -23.9307 0 
214 1 -20.0936 -23.8914 0 
216 1 -18.9648 -23.8507 0 
219 1 -17.2511 -24.7667 0 
218 1 -17.8349 -23.8103 0 
221 1 -16.122 -24.7262 0 
220 1 -16.7057 -23.7697 0 
222 1 -15.5769 -23.728 0 
223 1 -14.9934 -24.6848 0 
224 1 -14.4478 -23.6868 0 
225 1 -13.8645 -24.6437 0 
227 1 -12.7361 -24.6017 0 
229 1 -11.6086 -24.5598 0 
231 1 -10.4809 -24.5176 0 
233 1 -9.35351 -24.4744 0 
235 1 -8.22706 -24.433 0 
237 1 -7.10127 -24.3909 0 
239 1 -5.97581 -24.3484 0 
241 1 -4.85062 -24.3072 0 
243 1 -3.72628 -24.266 0 
245 1 -2.60223 -24.2249 0 
247 1 -1.47859 -24.1856 0 
249 1 -0.355146 -24.1474 0 
251 1 0.767779 -24.1094 0 
253 1 1.88998 -24.0731 0 
255 1 3.012 -24.0388 0 
257 1 4.13384 -24.0055 0 
259 1 5.2556 -23.974 0 
261 1 6.37737 -23.9439 0 
263 1 7.49945 -23.9157 0 
265 1 8.62141 -23.8892 0 
267 1 9.7431 -23.8642 0 
269 1 10.8649 -23.8409 0 
271 1 11.9871 -23.8188 0 
172 1 12.5648 -24.7976 0 
273 1 13.1096 -23.7986 0 
174 1 13.6871 -24.7779 0 
275 1 14.2323 -23.7796 0 
176 1 14.8095 -24.7591 0 
277 1 15.3555 -23.7614 0 
178 1 15.9322 -24.7415 0 
279 1 16.4786 -23.745 0 
180 1 17.0554 -24.7252 0 
281 1 17.6017 -23.7293 0 
182 1 18.1788 -24.7095 0 
283 1 18.7258 -23.7145 0 
184 1 19.3023 -24.6952 0 
285 1 19.8502 -23.7007 0 
186 1 20.4262 -24.6817 0 
287 1 20.9746 -23.6881 0 
188 1 21.5506 -24.6691 0 
289 1 22.099 -23.676 0 
190 1 22.6748 -24.6575 0 
291 1 23.2234 -23.665 0 
192 1 23.7993 -24.6463 0 
293 1 24.3484 -23.6547 0 
194 1 24.9243 -24.6363 0 
295 2 25.4729 -23.6443 0 
196 2 26.0488 -24.6264 0 
198 2 27.1745 -24.6176 0 
200 2 28.3003 -24.6093 0 
301 2 -27.4598 -23.1644 0 
303 2 -26.3303 -23.1287 0 
305 2 -25.2007 -23.0924 0 
307 2 -24.071 -23.0555 0 
309 1 -22.9404 -23.016 0 
311 1 -21.8096 -22.977 0 
313 1 -20.679 -22.9369 0 
315 1 -19.5496 -22.896 0 
317 1 -18.4197 -22.8554 0 
319 1 -17.29 -22.8141 0 
321 1 -16.1604 -22.7722 0 
323 1 -15.0308 -22.7301 0 
226 1 -13.3191 -23.6443 0 
325 1 -13.9025 -22.6874 0 
327 1 -12.7739 -22.6441 0 
228 1 -12.1907 -23.6011 0 
329 1 -11.6453 -22.6 0 
230 1 -11.0631 -23.5585 0 
331 1 -10.5177 -22.5564 0 
232 1 -9.93572 -23.5152 0 
333 1 -9.39077 -22.5122 0 
234 1 -8.80845 -23.4716 0 
236 1 -7.68263 -23.429 0 
238 1 -6.55736 -23.3861 0 
240 1 -5.4319 -23.3437 0 
242 1 -4.30707 -23.3011 0 
244 1 -3.18298 -23.2594 0 
246 1 -2.05913 -23.2182 0 
248 1 -0.93558 -23.1787 0 
250 1 0.187338 -23.1398 0 
252 1 1.30997 -23.1019 0 
254 1 2.43224 -23.0661 0 
256 1 3.55389 -23.032 0 
258 1 4.67597 -22.9996 0 
260 1 5.79812 -22.9685 0 
262 1 6.92064 -22.9392 0 
264 1 8.04276 -22.9122 0 
266 1 9.16497 -22.8866 0 
268 1 10.2876 -22.8623 0 
270 1 11.4101 -22.84 0 
272 1 12.5328 -22.8187 0 
274 1 13.6555 -22.7997 0 
276 1 14.7787 -22.7816 0 
278 1 15.9022 -22.7645 0 
280 1 17.0255 -22.7488 0 
282 1 18.1491 -22.734 0 
284 1 19.2731 -22.72 0 
286 1 20.3976 -22.7067 0 
288 1 21.5223 -22.6947 0 
290 1 22.6473 -22.6834 0 
292 1 23.7723 -22.673 0 
294 1 24.8974 -22.6626 0 
297 2 26.5987 -23.6355 0 
296 2 26.0228 -22.6533 0 
299 2 27.7248 -23.6273 0 
298 2 27.149 -22.6452 0 
300 2 28.2755 -22.6376 0 
302 2 -26.9167 -22.1747 0 
304 2 -25.7871 -22.1385 0 
306 2 -24.6574 -22.1018 0 
308 1 -23.527 -22.063 0 
310 1 -22.3962 -22.0235 0 
312 1 -21.2657 -21.9835 0 
314 1 -20.1355 -21.9422 0 
316 1 -19.0053 -21.9012 0 
318 1 -17.8752 -21.8594 0 
320 1 -16.7452 -21.8174 0 
322 1 -15.6153 -21.7751 0 
324 1 -14.4861 -21.7308 0 
326 1 -13.3576 -21.6874 0 
328 1 -12.2292 -21.6434 0 
330 1 -11.1009 -21.5983 0 
332 1 -9.97377 -21.5534 0 
334 1 -8.84724 -21.5079 0 
335 1 -8.26445 -22.4676 0 
336 1 -7.72089 -21.4623 0 
337 1 -7.13879 -22.4237 0 
338 1 -6.59487 -21.418 0 
339 1 -6.0132 -22.3808 0 
340 1 -5.46983 -21.3734 0 
341 1 -4.8883 -22.337 0 
343 1 -3.76377 -22.2939 0 
345 1 -2.63982 -22.2518 0 
347 1 -1.51646 -22.2109 0 
349 1 -0.393376 -22.1709 0 
351 1 0.72961 -22.1316 0 
353 1 1.85214 -22.0946 0 
355 1 2.97456 -22.0587 0 
357 1 4.09698 -22.0256 0 
359 1 5.21914 -21.9934 0 
361 1 6.34164 -21.9635 0 
363 1 7.46427 -21.9351 0 
365 1 8.58654 -21.9091 0 
367 1 9.70895 -21.8844 0 
369 1 10.8317 -21.8611 0 
371 1 11.9545 -21.8396 0 
373 1 13.0777 -21.8194 0 
375 1 14.2008 -21.8015 0 
377 1 15.3243 -21.7844 0 
379 1 16.4483 -21.7684 0 
381 1 17.5723 -21.7531 0 
383 1 18.6965 -21.7389 0 
385 1 19.821 -21.7258 0 
387 1 20.9458 -21.7134 0 
389 1 22.0709 -21.7021 0 
391 1 23.1962 -21.6911 0 
393 1 24.3214 -21.6807 0 
395 2 25.4466 -21.6709 0 
397 2 26.573 -21.6629 0 
399 2 27.6998 -21.6554 0 
401 2 -27.5037 -21.2208 0 
403 2 -26.3741 -21.1849 0 
402 2 -26.9617 -20.2313 0 
405 2 -25.2445 -21.1483 0 
404 2 -25.8321 -20.1949 0 
407 2 -24.1147 -21.111 0 
409 1 -22.9832 -21.0709 0 
411 1 -21.8524 -21.0305 0 
413 1 -20.7224 -20.9893 0 
415 1 -19.5919 -20.9479 0 
417 1 -18.4615 -20.9058 0 
419 1 -17.331 -20.8632 0 
421 1 -16.2007 -20.8204 0 
423 1 -15.0714 -20.776 0 
425 1 -13.9421 -20.731 0 
427 1 -12.8134 -20.6869 0 
429 1 -11.6854 -20.6415 0 
431 1 -10.5572 -20.5954 0 
433 1 -9.42982 -20.5491 0 
435 1 -8.30331 -20.5025 0 
437 1 -7.17729 -20.4565 0 
439 1 -6.05204 -20.4111 0 
342 1 -4.34533 -21.3294 0 
441 1 -4.92687 -20.3659 0 
344 1 -3.22106 -21.2864 0 
443 1 -3.80224 -20.3216 0 
346 1 -2.09708 -21.2436 0 
445 1 -2.67857 -20.2778 0 
348 1 -0.973841 -21.2024 0 
447 1 -1.55488 -20.2343 0 
350 1 0.149003 -21.1623 0 
352 1 1.27177 -21.1231 0 
354 1 2.39422 -21.0865 0 
356 1 3.51692 -21.0517 0 
358 1 4.63922 -21.0187 0 
360 1 5.7617 -20.9876 0 
362 1 6.88443 -20.9588 0 
364 1 8.00719 -20.9317 0 
366 1 9.13006 -20.9061 0 
368 1 10.253 -20.8821 0 
370 1 11.3761 -20.8602 0 
372 1 12.4995 -20.8398 0 
374 1 13.6233 -20.8209 0 
376 1 14.7467 -20.8037 0 
378 1 15.8706 -20.7879 0 
380 1 16.9949 -20.7726 0 
382 1 18.1198 -20.7579 0 
384 1 19.2448 -20.7444 0 
386 1 20.3696 -20.7322 0 
388 1 21.4945 -20.7206 0 
390 1 22.6196 -20.7093 0 
392 1 23.7452 -20.6988 0 
394 1 24.8712 -20.6889 0 
396 2 25.9969 -20.6804 0 
398 2 27.1238 -20.673 0 
400 2 28.251 -20.6661 0 
501 2 -27.5497 -19.2779 0 
503 2 -26.4202 -19.2417 0 
505 2 -25.2906 -19.2049 0 
406 2 -24.7023 -20.1579 0 
507 2 -24.1608 -19.1673 0 
408 1 -23.5716 -20.1192 0 
509 1 -23.0294 -19.127 0 
410 1 -22.4405 -20.0786 0 
511 1 -21.8987 -19.085 0 
412 1 -21.3098 -20.0369 0 
513 1 -20.7675 -19.0434 0 
414 1 -20.179 -19.9954 0 
416 1 -19.0483 -19.953 0 
418 1 -17.9177 -19.9099 0 
420 1 -16.7872 -19.8663 0 
422 1 -15.6577 -19.8217 0 
424 1 -14.5276 -19.7765 0 
426 1 -13.3981 -19.7306 0 
428 1 -12.2697 -19.6846 0 
430 1 -11.1413 -19.6388 0 
432 1 -10.0134 -19.5913 0 
434 1 -8.88652 -19.5438 0 
436 1 -7.76012 -19.4966 0 
438 1 -6.63427 -19.4498 0 
440 1 -5.50906 -19.4037 0 
442 1 -4.38405 -19.3576 0 
444 1 -3.25978 -19.3119 0 
446 1 -2.13626 -19.2674 0 
448 1 -1.01282 -19.224 0 
449 1 -0.431676 -20.1929 0 
450 1 0.110133 -19.1822 0 
451 1 0.690951 -20.1525 0 
452 1 1.23293 -19.143 0 
453 1 1.8136 -20.1143 0 
454 1 2.35559 -19.1058 0 
455 1 2.93623 -20.0786 0 
456 1 3.47825 -19.0707 0 
457 1 4.05912 -20.0441 0 
459 1 5.18176 -20.0121 0 
461 1 6.30478 -19.9824 0 
463 1 7.42752 -19.9542 0 
465 1 8.55043 -19.9282 0 
467 1 9.67381 -19.9035 0 
469 1 10.7976 -19.8806 0 
471 1 11.9214 -19.8596 0 
473 1 13.0455 -19.8408 0 
475 1 14.1695 -19.8225 0 
477 1 15.2936 -19.8064 0 
479 1 16.418 -19.7913 0 
481 1 17.5427 -19.7769 0 
483 1 18.6678 -19.7632 0 
485 1 19.7929 -19.7508 0 
487 1 20.9178 -19.739 0 
489 1 22.0433 -19.7277 0 
491 1 23.169 -19.7169 0 
493 1 24.2949 -19.7073 0 
495 2 25.4205 -19.6978 0 
497 2 26.5477 -19.6905 0 
499 2 27.6751 -19.6838 0 
502 2 -27.0088 -18.2886 0 
504 2 -25.8793 -18.252 0 
506 2 -24.7497 -18.2147 0 
508 1 -23.619 -18.1755 0 
510 1 -22.4882 -18.1336 0 
512 1 -21.3567 -18.0916 0 
514 1 -20.2257 -18.0487 0 
515 1 -19.6366 -19.0006 0 
516 1 -19.0946 -18.005 0 
517 1 -18.5057 -18.9571 0 
518 1 -17.9632 -17.9612 0 
519 1 -17.3747 -18.9135 0 
520 1 -16.8324 -17.9157 0 
521 1 -16.2442 -18.868 0 
523 1 -15.114 -18.8232 0 
525 1 -13.9843 -18.7763 0 
527 1 -12.855 -18.7291 0 
529 1 -11.7258 -18.6826 0 
531 1 -10.598 -18.6348 0 
533 1 -9.4708 -18.5861 0 
535 1 -8.34364 -18.5376 0 
537 1 -7.21724 -18.4895 0 
539 1 -6.09154 -18.4419 0 
541 1 -4.96645 -18.3945 0 
543 1 -3.84203 -18.3472 0 
545 1 -2.71812 -18.3011 0 
547 1 -1.5946 -18.2563 0 
549 1 -0.471245 -18.2127 0 
551 1 0.651719 -18.1718 0 
553 1 1.77439 -18.1334 0 
555 1 2.89717 -18.0969 0 
557 1 4.01983 -18.0623 0 
458 1 4.60138 -19.0368 0 
559 1 5.14277 -18.0299 0 
460 1 5.72413 -19.0061 0 
561 1 6.26601 -18 0 
462 1 6.84695 -18.9769 0 
563 1 7.38976 -17.9721 0 
464 1 7.97005 -18.9501 0 
565 1 8.51344 -17.9465 0 
466 1 9.09342 -18.9249 0 
567 1 9.63738 -17.9222 0 
468 1 10.2172 -18.9014 0 
569 1 10.7615 -17.8998 0 
470 1 11.3413 -18.8797 0 
472 1 12.4658 -18.8602 0 
474 1 13.59 -18.8421 0 
476 1 14.7148 -18.825 0 
478 1 15.84 -18.8096 0 
480 1 16.965 -18.7954 0 
482 1 18.0902 -18.7817 0 
484 1 19.2159 -18.7692 0 
486 1 20.3414 -18.7573 0 
488 1 21.4668 -18.7459 0 
490 1 22.5924 -18.735 0 
492 1 23.7187 -18.7256 0 
494 1 24.8451 -18.7159 0 
496 2 25.9714 -18.7078 0 
498 2 27.0991 -18.7012 0 
500 2 28.2271 -18.6951 0 
601 2 -27.5979 -17.3354 0 
603 2 -26.4686 -17.2992 0 
605 2 -25.3391 -17.2621 0 
607 2 -24.2094 -17.2244 0 
609 1 -23.0783 -17.1829 0 
611 1 -21.9467 -17.1408 0 
613 1 -20.8152 -17.0975 0 
615 1 -19.6838 -17.0539 0 
617 1 -18.5524 -17.0095 0 
619 1 -17.4219 -16.9639 0 
522 1 -15.7015 -17.87 0 
621 1 -16.291 -16.9181 0 
524 1 -14.5718 -17.8232 0 
623 1 -15.1602 -16.871 0 
526 1 -13.4422 -17.7755 0 
625 1 -14.0297 -16.8229 0 
528 1 -12.3121 -17.7282 0 
627 1 -12.8994 -16.7745 0 
530 1 -11.1831 -17.679 0 
532 1 -10.0553 -17.6292 0 
534 1 -8.92792 -17.58 0 
536 1 -7.80076 -17.53 0 
538 1 -6.67454 -17.4809 0 
540 1 -5.54905 -17.4323 0 
542 1 -4.42436 -17.3836 0 
544 1 -3.30028 -17.3362 0 
546 1 -2.17683 -17.2896 0 
548 1 -1.05355 -17.2445 0 
550 1 0.0697889 -17.2012 0 
552 1 1.19305 -17.161 0 
554 1 2.31631 -17.1231 0 
556 1 3.43913 -17.0873 0 
558 1 4.56209 -17.0538 0 
560 1 5.68532 -17.0228 0 
562 1 6.80922 -16.9942 0 
564 1 7.93298 -16.9677 0 
566 1 9.05676 -16.9431 0 
568 1 10.181 -16.9198 0 
571 1 11.8863 -17.8799 0 
570 1 11.3058 -16.8992 0 
573 1 13.011 -17.8611 0 
572 1 12.4311 -16.8802 0 
575 1 14.1355 -17.8441 0 
574 1 13.5563 -16.8626 0 
577 1 15.2607 -17.8284 0 
576 1 14.6816 -16.8468 0 
579 1 16.3861 -17.8136 0 
578 1 15.807 -16.8317 0 
581 1 17.5118 -17.8001 0 
580 1 16.933 -16.818 0 
583 1 18.6378 -17.7874 0 
582 1 18.0591 -16.8053 0 
585 1 19.7636 -17.7754 0 
584 1 19.1851 -16.7932 0 
587 1 20.8893 -17.7639 0 
586 1 20.3113 -16.7816 0 
589 1 22.0154 -17.753 0 
588 1 21.4381 -16.7711 0 
591 1 23.142 -17.7434 0 
590 1 22.5651 -16.761 0 
593 1 24.2686 -17.7341 0 
592 1 23.6922 -16.7518 0 
595 2 25.3948 -17.725 0 
594 1 24.8192 -16.743 0 
596 2 25.9465 -16.7357 0 
597 2 26.5229 -17.7186 0 
598 2 27.0751 -16.7299 0 
599 2 27.6512 -17.7126 0 
600 2 28.2039 -16.7246 0 
602 2 -27.0583 -16.3463 0 
604 2 -25.929 -16.3096 0 
606 2 -24.7995 -16.2721 0 
608 1 -23.669 -16.2324 0 
610 1 -22.5379 -16.1905 0 
612 1 -21.4063 -16.1474 0 
614 1 -20.2749 -16.1035 0 
616 1 -19.1433 -16.0592 0 
618 1 -18.012 -16.013 0 
620 1 -16.8809 -15.967 0 
622 1 -15.7496 -15.92 0 
624 1 -14.6185 -15.8713 0 
626 1 -13.4875 -15.822 0 
628 1 -12.3577 -15.7716 0 
629 1 -11.77 -16.7249 0 
630 1 -11.2282 -15.7204 0 
631 1 -10.6411 -16.674 0 
632 1 -10.0988 -15.6688 0 
633 1 -9.51263 -16.6233 0 
634 1 -8.97035 -15.616 0 
635 1 -8.38555 -16.5724 0 
637 1 -7.25862 -16.5214 0 
639 1 -6.13238 -16.4713 0 
641 1 -5.0072 -16.421 0 
643 1 -3.88284 -16.3718 0 
645 1 -2.75965 -16.3235 0 
647 1 -1.63651 -16.2769 0 
649 1 -0.513115 -16.232 0 
651 1 0.610369 -16.1895 0 
653 1 1.73355 -16.15 0 
655 1 2.85683 -16.1125 0 
657 1 3.98028 -16.0778 0 
659 1 5.1037 -16.0457 0 
661 1 6.2276 -16.0163 0 
663 1 7.35157 -15.9887 0 
665 1 8.47581 -15.9636 0 
667 1 9.60018 -15.9398 0 
669 1 10.7254 -15.9181 0 
671 1 11.851 -15.8989 0 
673 1 12.9766 -15.8808 0 
675 1 14.1023 -15.8649 0 
677 1 15.2281 -15.8497 0 
679 1 16.3543 -15.8356 0 
681 1 17.4804 -15.8228 0 
683 1 18.607 -15.8109 0 
685 1 19.7337 -15.7994 0 
687 1 20.8607 -15.7887 0 
689 1 21.9877 -15.7789 0 
691 1 23.1151 -15.7696 0 
693 1 24.2424 -15.7607 0 
695 2 25.3699 -15.7527 0 
697 2 26.4989 -15.7471 0 
699 2 27.6281 -15.742 0 
701 2 -27.6483 -15.3934 0 
703 2 -26.5193 -15.357 0 
705 2 -25.3901 -15.3199 0 
707 2 -24.2607 -15.282 0 
709 1 -23.1298 -15.2401 0 
711 1 -21.9985 -15.1978 0 
713 1 -20.8667 -15.1537 0 
715 1 -19.7349 -15.1094 0 
717 1 -18.6034 -15.0634 0 
719 1 -17.4716 -15.0167 0 
721 1 -16.3401 -14.9697 0 
723 1 -15.2086 -14.9209 0 
725 1 -14.0772 -14.871 0 
727 1 -12.9466 -14.8197 0 
729 1 -11.8165 -14.7679 0 
731 1 -10.6868 -14.7155 0 
733 1 -9.55744 -14.6619 0 
636 1 -7.84303 -15.5637 0 
735 1 -8.42921 -14.6075 0 
638 1 -6.71639 -15.5117 0 
737 1 -7.30228 -14.554 0 
640 1 -5.59106 -15.4596 0 
739 1 -6.17621 -14.4996 0 
642 1 -4.46642 -15.4084 0 
644 1 -3.34277 -15.358 0 
646 1 -2.21951 -15.3095 0 
648 1 -1.09621 -15.2632 0 
650 1 0.027224 -15.2189 0 
652 1 1.15056 -15.1774 0 
654 1 2.27387 -15.1386 0 
656 1 3.39748 -15.1024 0 
658 1 4.52135 -15.0688 0 
660 1 5.64549 -15.0385 0 
662 1 6.76986 -15.0099 0 
664 1 7.89463 -14.9838 0 
666 1 9.01953 -14.9595 0 
668 1 10.145 -14.9376 0 
670 1 11.2707 -14.9174 0 
672 1 12.3965 -14.8989 0 
674 1 13.5224 -14.8825 0 
676 1 14.6485 -14.8673 0 
678 1 15.7749 -14.8533 0 
680 1 16.9016 -14.8399 0 
682 1 18.0283 -14.8283 0 
684 1 19.155 -14.8171 0 
686 1 20.2824 -14.8064 0 
688 1 21.4102 -14.7965 0 
690 1 22.5381 -14.7876 0 
692 1 23.666 -14.7785 0 
694 1 24.7942 -14.7708 0 
696 2 25.9226 -14.7642 0 
698 2 27.0521 -14.7592 0 
700 2 28.1818 -14.7547 0 
702 2 -27.11 -14.4044 0 
801 2 -27.7009 -13.4516 0 
704 2 -25.9811 -14.3676 0 
803 2 -26.5724 -13.4152 0 
706 2 -24.852 -14.3301 0 
805 2 -25.4437 -13.3781 0 
708 1 -23.7214 -14.2898 0 
807 2 -24.3146 -13.3401 0 
710 1 -22.5907 -14.2478 0 
809 1 -23.184 -13.2976 0 
712 1 -21.4595 -14.2044 0 
714 1 -20.3275 -14.1598 0 
716 1 -19.1961 -14.1143 0 
718 1 -18.0639 -14.0676 0 
720 1 -16.9318 -14.0198 0 
722 1 -15.8002 -13.9712 0 
724 1 -14.6687 -13.9212 0 
726 1 -13.5374 -13.8695 0 
728 1 -12.4062 -13.8167 0 
730 1 -11.2759 -13.7631 0 
732 1 -10.1464 -13.7093 0 
734 1 -9.01712 -13.6536 0 
736 1 -7.88909 -13.5976 0 
738 1 -6.76254 -13.5419 0 
740 1 -5.63661 -13.4858 0 
741 1 -5.0512 -14.4464 0 
742 1 -4.51182 -13.4316 0 
743 1 -3.92716 -14.3941 0 
744 1 -3.38781 -13.3787 0 
745 1 -2.80367 -14.3435 0 
746 1 -2.26452 -13.3272 0 
747 1 -1.68052 -14.2948 0 
749 1 -0.557036 -14.2487 0 
751 1 0.5667 -14.2054 0 
753 1 1.69045 -14.165 0 
755 1 2.81402 -14.1274 0 
757 1 3.93783 -14.0926 0 
759 1 5.06255 -14.0605 0 
761 1 6.18681 -14.0314 0 
763 1 7.3117 -14.0046 0 
765 1 8.43707 -13.9796 0 
767 1 9.563 -13.957 0 
769 1 10.689 -13.936 0 
771 1 11.8154 -13.9172 0 
773 1 12.9421 -13.9001 0 
775 1 14.0687 -13.8845 0 
777 1 15.1955 -13.8706 0 
779 1 16.3225 -13.8576 0 
781 1 17.4499 -13.8451 0 
783 1 18.5771 -13.8343 0 
785 1 19.7044 -13.8241 0 
787 1 20.8326 -13.8142 0 
789 1 21.9611 -13.8052 0 
791 1 23.0894 -13.7966 0 
793 1 24.2179 -13.7888 0 
795 2 25.3462 -13.7811 0 
797 2 26.4761 -13.7764 0 
799 2 27.6062 -13.772 0 
802 2 -27.164 -12.4626 0 
804 2 -26.0357 -12.4259 0 
806 2 -24.9071 -12.3884 0 
808 1 -23.777 -12.348 0 
810 1 -22.6464 -12.305 0 
811 1 -22.0532 -13.2548 0 
812 1 -21.5152 -12.2622 0 
813 1 -20.9212 -13.2111 0 
814 1 -20.3835 -12.2173 0 
815 1 -19.7891 -13.1652 0 
816 1 -19.251 -12.1712 0 
817 1 -18.6571 -13.1194 0 
818 1 -18.1194 -12.1239 0 
819 1 -17.525 -13.0714 0 
821 1 -16.3927 -13.0225 0 
823 1 -15.2608 -12.9721 0 
825 1 -14.1296 -12.9205 0 
827 1 -12.9981 -12.8674 0 
829 1 -11.8667 -12.8127 0 
831 1 -10.7359 -12.7575 0 
833 1 -9.60619 -12.7015 0 
835 1 -8.47753 -12.6437 0 
837 1 -7.34996 -12.5858 0 
839 1 -6.22339 -12.5279 0 
841 1 -5.09742 -12.4706 0 
843 1 -3.97282 -12.4152 0 
845 1 -2.84884 -12.3613 0 
748 1 -1.14102 -13.2791 0 
847 1 -1.72499 -12.3102 0 
849 1 -0.601289 -12.2626 0 
750 1 -0.0174539 -13.2339 0 
851 1 0.522101 -12.2185 0 
752 1 1.10626 -13.1917 0 
853 1 1.64606 -12.1781 0 
754 1 2.2305 -13.1525 0 
756 1 3.3547 -13.1162 0 
758 1 4.47915 -13.0835 0 
760 1 5.60419 -13.0527 0 
762 1 6.7294 -13.0253 0 
764 1 7.855 -12.9997 0 
766 1 8.98129 -12.9765 0 
768 1 10.1074 -12.9549 0 
770 1 11.2342 -12.9355 0 
772 1 12.3609 -12.9179 0 
774 1 13.4881 -12.9017 0 
776 1 14.6156 -12.8873 0 
778 1 15.7431 -12.8749 0 
780 1 16.8707 -12.8625 0 
782 1 17.9988 -12.8513 0 
784 1 19.1269 -12.8411 0 
786 1 20.255 -12.8317 0 
788 1 21.3836 -12.8226 0 
790 1 22.5125 -12.8143 0 
792 1 23.6416 -12.8067 0 
794 1 24.7706 -12.7995 0 
796 2 25.9 -12.7934 0 
798 2 27.0306 -12.7893 0 
800 2 28.1612 -12.7854 0 
901 2 -27.7557 -11.5099 0 
903 2 -26.6279 -11.4735 0 
905 2 -25.4997 -11.4364 0 
907 2 -24.3713 -11.3985 0 
909 1 -23.241 -11.3562 0 
911 1 -22.1097 -11.3132 0 
913 1 -20.9787 -11.2692 0 
915 1 -19.8472 -11.224 0 
917 1 -18.7151 -11.1766 0 
820 1 -16.9876 -12.075 0 
919 1 -17.5829 -11.1282 0 
822 1 -15.8554 -12.0248 0 
921 1 -16.4503 -11.0782 0 
824 1 -14.723 -11.9725 0 
923 1 -15.3181 -11.0262 0 
826 1 -13.5907 -11.9194 0 
828 1 -12.4593 -11.8643 0 
830 1 -11.328 -11.808 0 
832 1 -10.1969 -11.7507 0 
834 1 -9.06738 -11.6918 0 
836 1 -7.93886 -11.6318 0 
838 1 -6.8113 -11.5716 0 
840 1 -5.68484 -11.5122 0 
842 1 -4.55955 -11.4533 0 
844 1 -3.43522 -11.3968 0 
846 1 -2.31138 -11.3426 0 
848 1 -1.18733 -11.2924 0 
850 1 -0.0633408 -11.2456 0 
852 1 1.06048 -11.2036 0 
855 1 2.7706 -12.1402 0 
854 1 2.1843 -11.1645 0 
857 1 3.89542 -12.106 0 
856 1 3.30903 -11.1288 0 
859 1 5.02001 -12.0748 0 
858 1 4.43474 -11.0964 0 
861 1 6.14534 -12.0458 0 
860 1 5.56077 -11.067 0 
863 1 7.27137 -12.0196 0 
862 1 6.68717 -11.0397 0 
865 1 8.39812 -11.9961 0 
864 1 7.81435 -11.0154 0 
867 1 9.52485 -11.9739 0 
869 1 10.6521 -11.954 0 
871 1 11.7794 -11.9357 0 
873 1 12.907 -11.9193 0 
875 1 14.0351 -11.9045 0 
877 1 15.1635 -11.8915 0 
879 1 16.2914 -11.8795 0 
881 1 17.42 -11.8684 0 
883 1 18.5491 -11.8582 0 
885 1 19.6782 -11.8488 0 
887 1 20.807 -11.84 0 
889 1 21.9361 -11.8318 0 
891 1 23.0653 -11.8244 0 
893 1 24.1946 -11.8171 0 
895 2 25.3239 -11.8103 0 
897 2 26.4549 -11.8064 0 
899 2 27.586 -11.8028 0 
902 2 -27.2202 -10.5209 0 
904 2 -26.0925 -10.4842 0 
906 2 -24.9646 -10.4468 0 
908 1 -23.8353 -10.4069 0 
910 1 -22.7048 -10.3647 0 
912 1 -21.5742 -10.3209 0 
914 1 -20.443 -10.2765 0 
916 1 -19.3114 -10.23 0 
918 1 -18.1797 -10.1816 0 
920 1 -17.0474 -10.1325 0 
922 1 -15.9151 -10.0806 0 
924 1 -14.7823 -10.0273 0 
925 1 -14.1855 -10.9729 0 
926 1 -13.6496 -9.97162 0 
927 1 -13.0533 -10.9172 0 
928 1 -12.5165 -9.91433 0 
929 1 -11.9213 -10.8603 0 
930 1 -11.384 -9.85556 0 
931 1 -10.7895 -10.8021 0 
933 1 -9.65882 -10.7417 0 
935 1 -8.52921 -10.6801 0 
937 1 -7.40035 -10.6177 0 
939 1 -6.27292 -10.5555 0 
941 1 -5.14717 -10.4938 0 
943 1 -4.02225 -10.4338 0 
945 1 -2.89813 -10.3763 0 
947 1 -1.77434 -10.323 0 
949 1 -0.650631 -10.2736 0 
951 1 0.473659 -10.2293 0 
953 1 1.59813 -10.1886 0 
955 1 2.72318 -10.1515 0 
957 1 3.8488 -10.1185 0 
959 1 4.97531 -10.088 0 
961 1 6.1025 -10.0598 0 
963 1 7.23033 -10.0348 0 
965 1 8.35826 -10.0119 0 
866 1 8.94169 -10.9929 0 
967 1 9.48655 -9.99123 0 
868 1 10.0695 -10.9728 0 
969 1 10.6148 -9.97201 0 
870 1 11.1975 -10.9538 0 
971 1 11.7434 -9.95417 0 
872 1 12.3257 -10.9366 0 
973 1 12.8726 -9.93841 0 
874 1 13.4541 -10.9214 0 
975 1 14.0026 -9.92524 0 
876 1 14.5834 -10.9085 0 
977 1 15.1323 -9.91291 0 
878 1 15.7126 -10.896 0 
979 1 16.2625 -9.90177 0 
880 1 16.8417 -10.8853 0 
981 1 17.3926 -9.89181 0 
882 1 17.9709 -10.8752 0 
983 1 18.5223 -9.88246 0 
884 1 19.1005 -10.8657 0 
985 1 19.6523 -9.87367 0 
886 1 20.23 -10.8572 0 
987 1 20.7827 -9.86631 0 
888 1 21.3597 -10.8495 0 
890 1 22.4895 -10.8416 0 
989 1 21.913 -9.85914 0 
892 1 23.6193 -10.8348 0 
991 1 23.0435 -9.85222 0 
894 1 24.7492 -10.8282 0 
993 1 24.1736 -9.84589 0 
896 2 25.8793 -10.8234 0 
995 2 25.3037 -9.84035 0 
898 2 27.0108 -10.8201 0 
997 2 26.4357 -9.83726 0 
900 2 28.1423 -10.817 0 
999 2 27.5677 -9.8344 0 
1001 2 -27.8125 -9.56805 0 
1003 2 -26.6854 -9.5318 0 
1005 2 -25.5581 -9.49477 0 
1007 2 -24.4305 -9.45693 0 
1009 1 -23.3007 -9.41572 0 
1011 1 -22.1707 -9.37256 0 
1013 1 -21.0399 -9.32888 0 
1015 1 -19.9089 -9.28343 0 
1017 1 -18.7777 -9.23555 0 
1019 1 -17.6458 -9.18713 0 
1021 1 -16.5136 -9.1358 0 
1023 1 -15.381 -9.08292 0 
1025 1 -14.2481 -9.02756 0 
1027 1 -13.1143 -8.97026 0 
1029 1 -11.9808 -8.91059 0 
932 1 -10.2524 -9.79378 0 
1031 1 -10.8486 -8.84876 0 
934 1 -9.12177 -9.73049 0 
1033 1 -9.7166 -8.78345 0 
936 1 -7.99192 -9.66631 0 
1035 1 -8.58549 -8.71738 0 
938 1 -6.86336 -9.6012 0 
940 1 -5.73643 -9.53646 0 
942 1 -4.61079 -9.47308 0 
944 1 -3.48596 -9.4118 0 
946 1 -2.36202 -9.35447 0 
948 1 -1.23878 -9.30214 0 
950 1 -0.114864 -9.25511 0 
952 1 1.00999 -9.21305 0 
954 1 2.13563 -9.17454 0 
956 1 3.262 -9.13987 0 
958 1 4.38857 -9.10852 0 
960 1 5.51617 -9.08003 0 
962 1 6.64499 -9.05451 0 
964 1 7.77392 -9.03096 0 
966 1 8.90315 -9.00976 0 
968 1 10.0326 -8.99018 0 
970 1 11.1623 -8.9721 0 
972 1 12.2922 -8.95575 0 
974 1 13.4225 -8.94235 0 
976 1 14.5529 -8.92944 0 
978 1 15.6835 -8.91849 0 
980 1 16.814 -8.90833 0 
982 1 17.9444 -8.89876 0 
984 1 19.0751 -8.89042 0 
986 1 20.2063 -8.88304 0 
988 1 21.3372 -8.87606 0 
990 1 22.4682 -8.86955 0 
992 1 23.5989 -8.86332 0 
994 1 24.7298 -8.8583 0 
996 2 25.8608 -8.85435 0 
998 2 26.9933 -8.85174 0 
1000 2 28.1257 -8.84931 0 
1002 2 -27.2783 -8.57905 0 
1101 2 -27.8711 -7.62598 0 
1004 2 -26.1516 -8.54247 0 
1103 2 -26.7449 -7.58983 0 
1006 2 -25.0246 -8.50509 0 
1105 2 -25.6186 -7.5529 0 
1008 1 -23.8964 -8.46607 0 
1107 2 -24.492 -7.51516 0 
1010 1 -22.7672 -8.42393 0 
1012 1 -21.6373 -8.38113 0 
1014 1 -20.5069 -8.33653 0 
1016 1 -19.3763 -8.28972 0 
1018 1 -18.2449 -8.24169 0 
1020 1 -17.1134 -8.19187 0 
1022 1 -15.9809 -8.13902 0 
1024 1 -14.8484 -8.0846 0 
1026 1 -13.7153 -8.02786 0 
1028 1 -12.5812 -7.96806 0 
1030 1 -11.4478 -7.90541 0 
1032 1 -10.315 -7.84025 0 
1034 1 -9.18231 -7.77177 0 
1036 1 -8.05098 -7.70215 0 
1037 1 -7.4556 -8.64989 0 
1038 1 -6.92114 -7.63036 0 
1039 1 -6.32749 -8.58166 0 
1041 1 -5.20134 -8.5146 0 
1043 1 -4.07634 -8.44957 0 
1045 1 -2.95219 -8.38752 0 
1047 1 -1.82865 -8.33105 0 
1049 1 -0.704747 -8.28106 0 
1051 1 0.420419 -8.23737 0 
1053 1 1.54631 -8.1976 0 
1055 1 2.67331 -8.16186 0 
1057 1 3.80101 -8.1293 0 
1059 1 4.92947 -8.10003 0 
1061 1 6.05881 -8.07387 0 
1063 1 7.18858 -8.05006 0 
1065 1 8.31883 -8.02841 0 
1067 1 9.44935 -8.00847 0 
1069 1 10.5801 -7.99014 0 
1071 1 11.7105 -7.97343 0 
1073 1 12.8414 -7.95938 0 
1075 1 13.9724 -7.94671 0 
1077 1 15.1039 -7.93479 0 
1079 1 16.235 -7.92499 0 
1081 1 17.3663 -7.91527 0 
1083 1 18.4975 -7.90705 0 
1085 1 19.629 -7.9003 0 
1087 1 20.7606 -7.89303 0 
1089 1 21.8922 -7.88684 0 
1091 1 23.0238 -7.88072 0 
1093 1 24.1549 -7.87591 0 
1095 2 25.2861 -7.87134 0 
1097 2 26.419 -7.86899 0 
1099 2 27.5519 -7.8668 0 
1102 2 -27.3381 -6.63684 0 
1104 2 -26.2124 -6.60035 0 
1106 2 -25.0865 -6.56307 0 
1108 1 -23.9595 -6.52443 0 
1109 1 -23.3638 -7.47492 0 
1110 1 -22.8318 -6.48397 0 
1111 1 -22.2345 -7.43266 0 
1112 1 -21.7033 -6.44121 0 
1113 1 -21.1053 -7.38943 0 
1114 1 -20.5747 -6.39739 0 
1115 1 -19.9753 -7.34384 0 
1116 1 -19.4452 -6.35098 0 
1117 1 -18.8447 -7.29616 0 
1119 1 -17.7136 -7.24728 0 
1121 1 -16.5823 -7.19602 0 
1123 1 -15.45 -7.14205 0 
1125 1 -14.3175 -7.08599 0 
1127 1 -13.1841 -7.02741 0 
1129 1 -12.0503 -6.96453 0 
1131 1 -10.9166 -6.89922 0 
1133 1 -9.78321 -6.83028 0 
1135 1 -8.65026 -6.75798 0 
1137 1 -7.51882 -6.68355 0 
1139 1 -6.3892 -6.60711 0 
1040 1 -5.79348 -7.55844 0 
1141 1 -5.26181 -6.53107 0 
1042 1 -4.66799 -7.48901 0 
1143 1 -4.13694 -6.45908 0 
1044 1 -3.54372 -7.42229 0 
1046 1 -2.41995 -7.36108 0 
1048 1 -1.29576 -7.30732 0 
1050 1 -0.170455 -7.26091 0 
1052 1 0.955462 -7.21984 0 
1054 1 2.08255 -7.18336 0 
1056 1 3.2112 -7.15068 0 
1058 1 4.34086 -7.12044 0 
1060 1 5.47164 -7.09308 0 
1062 1 6.60286 -7.06902 0 
1064 1 7.73409 -7.04699 0 
1066 1 8.86547 -7.02662 0 
1068 1 9.99694 -7.00828 0 
1070 1 11.1282 -6.99107 0 
1072 1 12.2599 -6.97658 0 
1074 1 13.3916 -6.9636 0 
1076 1 14.5235 -6.95184 0 
1078 1 15.6556 -6.94108 0 
1080 1 16.7872 -6.93212 0 
1082 1 17.9195 -6.9236 0 
1084 1 19.0518 -6.91699 0 
1086 1 20.1837 -6.91011 0 
1088 1 21.3162 -6.90376 0 
1090 1 22.4483 -6.89855 0 
1092 1 23.5805 -6.89301 0 
1094 1 24.7127 -6.88916 0 
1096 2 25.8451 -6.88616 0 
1098 2 26.9784 -6.88422 0 
1100 2 28.1116 -6.88241 0 
1201 2 -27.9311 -5.68349 0 
1203 2 -26.806 -5.64742 0 
1205 2 -25.6808 -5.61059 0 