ITEM: TIMESTEP
3000
ITEM: NUMBER OF ATOMS
2850
ITEM: BOX BOUNDS ff ff pp
-42.092 42.092
-42.092 42.092
-0.280613 0.280613
ITEM: ATOMS id type xu yu zu 
1 2 -27.3398 -28.9988 0 
3 2 -26.2107 -28.9642 0 
5 2 -25.0816 -28.9291 0 
7 2 -23.9525 -28.8936 0 
9 2 -22.8235 -28.8577 0 
11 2 -21.6944 -28.8213 0 
13 2 -20.5655 -28.7844 0 
15 2 -19.4366 -28.7472 0 
17 2 -18.3079 -28.7095 0 
19 2 -17.1793 -28.6715 0 
21 2 -16.0508 -28.6331 0 
23 2 -14.9226 -28.5944 0 
25 2 -13.7947 -28.5554 0 
27 2 -12.667 -28.5163 0 
29 2 -11.5396 -28.477 0 
31 2 -10.4126 -28.4376 0 
33 2 -9.28592 -28.3982 0 
35 2 -8.15967 -28.3589 0 
37 2 -7.03386 -28.3198 0 
39 2 -5.90848 -28.281 0 
2 2 -26.7941 -28.0086 0 
4 2 -25.6649 -27.9736 0 
6 2 -24.5357 -27.9381 0 
8 2 -23.4065 -27.902 0 
10 2 -22.2773 -27.8656 0 
12 2 -21.1481 -27.8286 0 
14 2 -20.019 -27.7912 0 
16 2 -18.89 -27.7533 0 
18 2 -17.7611 -27.715 0 
20 2 -16.6324 -27.6763 0 
22 2 -15.5039 -27.6373 0 
24 2 -14.3755 -27.5979 0 
26 2 -13.2475 -27.5582 0 
28 2 -12.1197 -27.5183 0 
30 2 -10.9923 -27.4783 0 
32 2 -9.86522 -27.4382 0 
34 2 -8.73856 -27.3981 0 
36 2 -7.61233 -27.3581 0 
38 2 -6.48656 -27.3184 0 
40 2 -5.36126 -27.2789 0 
41 2 -4.78357 -28.2426 0 
42 2 -4.23645 -27.24 0 
43 2 -3.65912 -28.2046 0 
44 2 -3.11213 -27.2015 0 
45 2 -2.53513 -28.1673 0 
46 2 -1.98828 -27.1638 0 
47 2 -1.41159 -28.1307 0 
48 2 -0.8649 -27.1269 0 
49 2 -0.288464 -28.095 0 
51 2 0.834263 -28.0602 0 
53 2 1.95663 -28.0264 0 
55 2 3.07869 -27.9937 0 
57 2 4.20048 -27.9622 0 
59 2 5.32207 -27.9319 0 
61 2 6.4435 -27.9029 0 
63 2 7.56483 -27.8752 0 
65 2 8.68613 -27.8488 0 
67 2 9.80743 -27.8237 0 
69 2 10.9288 -27.8 0 
71 2 12.0503 -27.7775 0 
73 2 13.1719 -27.7563 0 
75 2 14.2937 -27.7363 0 
77 2 15.4157 -27.7174 0 
79 2 16.538 -27.6997 0 
81 2 17.6605 -27.683 0 
83 2 18.7832 -27.6673 0 
85 2 19.9063 -27.6526 0 
87 2 21.0296 -27.6388 0 
89 2 22.1532 -27.6258 0 
91 2 23.2771 -27.6136 0 
93 2 24.4012 -27.6022 0 
95 2 25.5256 -27.5914 0 
97 2 26.6503 -27.5812 0 
99 2 27.7752 -27.5717 0 
101 2 -27.378 -27.0533 0 
103 2 -26.2487 -27.0183 0 
102 2 -26.833 -26.0633 0 
105 2 -25.1194 -26.9828 0 
104 2 -25.7037 -26.0278 0 
107 2 -23.9901 -26.9468 0 
106 2 -24.5742 -25.9918 0 
109 2 -22.8607 -26.9102 0 
108 1 -23.4442 -25.955 0 
111 2 -21.7314 -26.8732 0 
113 2 -20.6021 -26.8357 0 
115 2 -19.4729 -26.7977 0 
117 2 -18.3437 -26.7591 0 
119 2 -17.2147 -26.7202 0 
121 2 -16.0858 -26.6808 0 
123 2 -14.9572 -26.641 0 
125 2 -13.8287 -26.6009 0 
127 2 -12.7006 -26.5605 0 
129 2 -11.5727 -26.5198 0 
131 2 -10.4452 -26.479 0 
133 2 -9.31813 -26.4382 0 
135 2 -8.19146 -26.3973 0 
137 2 -7.06526 -26.3566 0 
139 2 -5.93954 -26.3162 0 
141 2 -4.81433 -26.2762 0 
143 2 -3.68963 -26.2366 0 
145 2 -2.56545 -26.1977 0 
147 2 -1.44177 -26.1596 0 
50 2 0.258046 -27.0909 0 
149 2 -0.318563 -26.1224 0 
52 2 1.38059 -27.056 0 
151 2 0.804196 -26.0862 0 
54 2 2.50279 -27.0222 0 
153 2 1.92656 -26.0512 0 
56 2 3.62468 -26.9896 0 
155 2 3.04857 -26.0174 0 
58 2 4.74633 -26.9582 0 
157 2 4.1703 -25.9849 0 
60 2 5.86779 -26.9282 0 
159 2 5.2918 -25.9538 0 
62 2 6.98913 -26.8996 0 
64 2 8.11041 -26.8723 0 
66 2 9.23169 -26.8465 0 
68 2 10.353 -26.822 0 
70 2 11.4745 -26.7989 0 
72 2 12.596 -26.7771 0 
74 2 13.7178 -26.7566 0 
76 2 14.8398 -26.7373 0 
78 2 15.962 -26.7192 0 
80 2 17.0845 -26.7023 0 
82 2 18.2073 -26.6863 0 
84 2 19.3304 -26.6714 0 
86 2 20.4538 -26.6575 0 
88 2 21.5774 -26.6444 0 
90 2 22.7014 -26.6321 0 
92 2 23.8256 -26.6206 0 
94 2 24.9501 -26.6098 0 
96 2 26.0749 -26.5996 0 
98 2 27.2 -26.5901 0 
100 2 28.3253 -26.5811 0 
201 2 -27.4179 -25.1085 0 
203 2 -26.2885 -25.0731 0 
205 2 -25.159 -25.0372 0 
207 2 -24.0295 -25.0007 0 
209 1 -22.8987 -24.9632 0 
110 1 -22.3142 -25.9178 0 
211 1 -21.7689 -24.924 0 
112 1 -21.185 -25.8794 0 
213 1 -20.6391 -24.8855 0 
114 1 -20.0553 -25.8408 0 
215 1 -19.5087 -24.8463 0 
116 1 -18.9255 -25.8021 0 
217 1 -18.379 -24.8058 0 
118 1 -17.7968 -25.7628 0 
120 1 -16.6676 -25.7238 0 
122 1 -15.5387 -25.6832 0 
124 1 -14.4105 -25.6423 0 
126 1 -13.2825 -25.6016 0 
128 1 -12.1548 -25.56 0 
130 1 -11.0273 -25.5186 0 
132 1 -9.90006 -25.4772 0 
134 1 -8.77329 -25.4359 0 
136 1 -7.64718 -25.3946 0 
138 1 -6.52109 -25.3531 0 
140 1 -5.396 -25.312 0 
142 1 -4.27143 -25.272 0 
144 1 -3.14698 -25.2321 0 
146 1 -2.0236 -25.1928 0 
148 1 -0.900586 -25.1545 0 
150 1 0.222678 -25.1177 0 
152 1 1.34554 -25.0814 0 
154 1 2.46768 -25.0464 0 
156 1 3.5895 -25.0131 0 
158 1 4.71109 -24.9807 0 
160 1 5.8326 -24.9504 0 
161 2 6.41316 -25.9242 0 
162 1 6.95403 -24.9214 0 
163 2 7.53443 -25.896 0 
164 1 8.07536 -24.8942 0 
165 2 8.65568 -25.8693 0 
167 2 9.77697 -25.844 0 
166 1 9.19705 -24.8683 0 
169 2 10.8984 -25.8202 0 
168 1 10.3191 -24.8435 0 
171 2 12.0199 -25.7978 0 
170 1 11.4415 -24.8206 0 
173 2 13.1416 -25.7768 0 
175 2 14.2636 -25.7571 0 
177 2 15.3858 -25.7386 0 
179 2 16.5083 -25.7213 0 
181 2 17.6311 -25.7052 0 
183 2 18.7543 -25.6901 0 
185 2 19.8777 -25.6759 0 
187 2 21.0014 -25.6627 0 
189 2 22.1254 -25.6504 0 
191 2 23.2498 -25.6388 0 
193 2 24.3744 -25.628 0 
195 2 25.4993 -25.6179 0 
197 2 26.6245 -25.6084 0 
199 2 27.75 -25.5994 0 
202 2 -26.8739 -24.1187 0 
204 2 -25.7444 -24.0828 0 
206 2 -24.6148 -24.0464 0 
208 1 -23.4843 -24.0089 0 
210 1 -22.3543 -23.9696 0 
212 1 -21.2237 -23.9305 0 
214 1 -20.093 -23.8915 0 
216 1 -18.9631 -23.8505 0 
219 1 -17.2496 -24.767 0 
218 1 -17.833 -23.8108 0 
221 1 -16.1208 -24.7264 0 
220 1 -16.704 -23.7699 0 
222 1 -15.5756 -23.7278 0 
223 1 -14.9924 -24.6843 0 
224 1 -14.4467 -23.6852 0 
225 1 -13.8643 -24.643 0 
227 1 -12.737 -24.6011 0 
229 1 -11.6096 -24.5589 0 
231 1 -10.4822 -24.517 0 
233 1 -9.35503 -24.4749 0 
235 1 -8.22876 -24.4328 0 
237 1 -7.10345 -24.3909 0 
239 1 -5.9784 -24.3489 0 
241 1 -4.85351 -24.3077 0 
243 1 -3.72906 -24.267 0 
245 1 -2.6053 -24.2261 0 
247 1 -1.48223 -24.1871 0 
249 1 -0.359024 -24.149 0 
251 1 0.763722 -24.1118 0 
253 1 1.88594 -24.076 0 
255 1 3.00808 -24.0414 0 
257 1 4.12992 -24.0083 0 
259 1 5.25177 -23.9766 0 
261 1 6.37355 -23.9472 0 
263 1 7.49542 -23.9189 0 
265 1 8.61774 -23.8925 0 
267 1 9.73976 -23.8674 0 
269 1 10.8621 -23.8436 0 
271 1 11.9846 -23.8216 0 
172 1 12.5638 -24.7991 0 
273 1 13.1079 -23.8008 0 
174 1 13.6862 -24.779 0 
275 1 14.2314 -23.7811 0 
176 1 14.8091 -24.7595 0 
277 1 15.3552 -23.7626 0 
178 1 15.9325 -24.7417 0 
279 1 16.479 -23.7455 0 
180 1 17.0561 -24.7254 0 
281 1 17.6026 -23.7296 0 
182 1 18.1789 -24.7096 0 
283 1 18.7268 -23.7152 0 
184 1 19.3021 -24.6954 0 
285 1 19.8513 -23.7018 0 
186 1 20.4263 -24.682 0 
287 1 20.9756 -23.688 0 
188 1 21.5505 -24.6691 0 
289 1 22.0997 -23.6765 0 
190 1 22.675 -24.6577 0 
291 1 23.2242 -23.6655 0 
192 1 23.7995 -24.6464 0 
293 1 24.3489 -23.6546 0 
194 1 24.924 -24.6364 0 
295 2 25.4729 -23.6443 0 
196 2 26.0488 -24.6264 0 
198 2 27.1745 -24.6176 0 
200 2 28.3003 -24.6093 0 
301 2 -27.4598 -23.1644 0 
303 2 -26.3303 -23.1287 0 
305 2 -25.2007 -23.0924 0 
307 2 -24.071 -23.0555 0 
309 1 -22.9404 -23.0158 0 
311 1 -21.8089 -22.9766 0 
313 1 -20.6779 -22.9367 0 
315 1 -19.548 -22.8959 0 
317 1 -18.4174 -22.8555 0 
319 1 -17.2878 -22.814 0 
321 1 -16.159 -22.7713 0 
323 1 -15.0302 -22.7286 0 
226 1 -13.3188 -23.6425 0 
325 1 -13.9017 -22.6848 0 
327 1 -12.7739 -22.6418 0 
228 1 -12.1912 -23.5999 0 
329 1 -11.6464 -22.5982 0 
230 1 -11.0642 -23.5572 0 
331 1 -10.5195 -22.5545 0 
232 1 -9.93757 -23.5147 0 
333 1 -9.39313 -22.5111 0 
234 1 -8.81112 -23.4715 0 
236 1 -7.6853 -23.4288 0 
238 1 -6.55996 -23.3865 0 
240 1 -5.4351 -23.344 0 
242 1 -4.31093 -23.3021 0 
244 1 -3.18708 -23.2606 0 
246 1 -2.06383 -23.2199 0 
248 1 -0.940965 -23.1808 0 
250 1 0.181748 -23.1423 0 
252 1 1.30421 -23.1057 0 
254 1 2.4265 -23.0703 0 
256 1 3.54886 -23.036 0 
258 1 4.67106 -23.0033 0 
260 1 5.7935 -22.9728 0 
262 1 6.91551 -22.944 0 
264 1 8.03801 -22.917 0 
266 1 9.16073 -22.8906 0 
268 1 10.2834 -22.8666 0 
270 1 11.4068 -22.8438 0 
272 1 12.5304 -22.8228 0 
274 1 13.6538 -22.8026 0 
276 1 14.7774 -22.7838 0 
278 1 15.9018 -22.766 0 
280 1 17.0259 -22.7498 0 
282 1 18.1497 -22.7348 0 
284 1 19.2741 -22.7211 0 
286 1 20.3987 -22.7075 0 
288 1 21.5235 -22.6949 0 
290 1 22.648 -22.6842 0 
292 1 23.7729 -22.6732 0 
294 1 24.898 -22.6624 0 
297 2 26.5987 -23.6355 0 
296 2 26.0228 -22.6533 0 
299 2 27.7248 -23.6273 0 
298 2 27.149 -22.6452 0 
300 2 28.2755 -22.6376 0 
302 2 -26.9167 -22.1747 0 
304 2 -25.7871 -22.1385 0 
306 2 -24.6574 -22.1018 0 
308 1 -23.5267 -22.0624 0 
310 1 -22.3957 -22.0235 0 
312 1 -21.2645 -21.9833 0 
314 1 -20.1339 -21.9414 0 
316 1 -19.003 -21.9011 0 
318 1 -17.873 -21.8588 0 
320 1 -16.7437 -21.8156 0 
322 1 -15.6142 -21.7726 0 
324 1 -14.4853 -21.7282 0 
326 1 -13.3569 -21.6841 0 
328 1 -12.2293 -21.6406 0 
330 1 -11.1022 -21.5957 0 
332 1 -9.97548 -21.5511 0 
334 1 -8.84929 -21.5066 0 
335 1 -8.26681 -22.4671 0 
336 1 -7.72346 -21.462 0 
337 1 -7.14142 -22.4242 0 
338 1 -6.59899 -21.4179 0 
339 1 -6.0167 -22.3809 0 
340 1 -5.47484 -21.3738 0 
341 1 -4.89235 -22.3375 0 
343 1 -3.7685 -22.2956 0 
345 1 -2.64518 -22.2536 0 
347 1 -1.52272 -22.2132 0 
349 1 -0.400209 -22.1735 0 
351 1 0.722683 -22.1358 0 
353 1 1.8454 -22.0994 0 
355 1 2.96807 -22.064 0 
357 1 4.09056 -22.0301 0 
359 1 5.21287 -21.9989 0 
361 1 6.33517 -21.9686 0 
363 1 7.45772 -21.941 0 
365 1 8.58059 -21.9144 0 
367 1 9.70361 -21.8895 0 
369 1 10.8271 -21.8668 0 
371 1 11.9511 -21.845 0 
373 1 13.0751 -21.824 0 
375 1 14.1989 -21.8046 0 
377 1 15.323 -21.787 0 
379 1 16.4474 -21.7703 0 
381 1 17.5719 -21.7545 0 
383 1 18.6966 -21.7403 0 
385 1 19.8214 -21.7266 0 
387 1 20.9461 -21.7136 0 
389 1 22.0712 -21.7024 0 
391 1 23.1961 -21.6916 0 
393 1 24.3215 -21.6808 0 
395 2 25.4466 -21.6709 0 
397 2 26.573 -21.6629 0 
399 2 27.6998 -21.6554 0 
401 2 -27.5037 -21.2208 0 
403 2 -26.3741 -21.1849 0 
402 2 -26.9617 -20.2313 0 
405 2 -25.2445 -21.1483 0 
404 2 -25.8321 -20.1949 0 
407 2 -24.1147 -21.111 0 
409 1 -22.9824 -21.0702 0 
411 1 -21.8513 -21.0305 0 
413 1 -20.721 -20.9885 0 
415 1 -19.5898 -20.9475 0 
417 1 -18.4594 -20.905 0 
419 1 -17.3294 -20.8612 0 
421 1 -16.1995 -20.8177 0 
423 1 -15.0706 -20.773 0 
425 1 -13.9414 -20.7276 0 
427 1 -12.813 -20.6833 0 
429 1 -11.6857 -20.638 0 
431 1 -10.5584 -20.5924 0 
433 1 -9.43168 -20.5468 0 
435 1 -8.30575 -20.5012 0 
437 1 -7.18079 -20.4556 0 
439 1 -6.05628 -20.4106 0 
342 1 -4.3508 -21.3308 0 
441 1 -4.9319 -20.3664 0 
344 1 -3.22723 -21.2881 0 
443 1 -3.80826 -20.3227 0 
346 1 -2.10418 -21.246 0 
445 1 -2.68491 -20.2795 0 
348 1 -0.981817 -21.2055 0 
447 1 -1.56207 -20.237 0 
350 1 0.141231 -21.1662 0 
352 1 1.26377 -21.129 0 
354 1 2.38604 -21.0926 0 
356 1 3.50831 -21.0579 0 
358 1 4.63108 -21.0248 0 
360 1 5.75381 -20.9943 0 
362 1 6.87721 -20.9654 0 
364 1 8.00048 -20.9383 0 
366 1 9.12354 -20.9122 0 
368 1 10.2468 -20.8891 0 
370 1 11.3708 -20.8672 0 
372 1 12.495 -20.8461 0 
374 1 13.6195 -20.8257 0 
376 1 14.7439 -20.8073 0 
378 1 15.8685 -20.7904 0 
380 1 16.9933 -20.7747 0 
382 1 18.1184 -20.7597 0 
384 1 19.2431 -20.746 0 
386 1 20.3684 -20.7326 0 
388 1 21.4941 -20.7209 0 
390 1 22.6197 -20.7096 0 
392 1 23.7454 -20.6991 0 
394 1 24.8712 -20.6891 0 
396 2 25.9969 -20.6804 0 
398 2 27.1238 -20.673 0 
400 2 28.251 -20.6661 0 
501 2 -27.5497 -19.2779 0 
503 2 -26.4202 -19.2417 0 
505 2 -25.2906 -19.2049 0 
406 2 -24.7023 -20.1579 0 
507 2 -24.1608 -19.1673 0 
408 1 -23.5711 -20.1187 0 
509 1 -23.0287 -19.1263 0 
410 1 -22.4394 -20.078 0 
511 1 -21.8972 -19.0846 0 
412 1 -21.3086 -20.0363 0 
513 1 -20.7653 -19.043 0 
414 1 -20.1771 -19.9951 0 
416 1 -19.0464 -19.9524 0 
418 1 -17.9161 -19.9086 0 
420 1 -16.7859 -19.8641 0 
422 1 -15.6567 -19.8186 0 
424 1 -14.5276 -19.7733 0 
426 1 -13.3982 -19.7268 0 
428 1 -12.2701 -19.6808 0 
430 1 -11.1424 -19.6347 0 
432 1 -10.0153 -19.5881 0 
434 1 -8.88891 -19.5416 0 
436 1 -7.76356 -19.4948 0 
438 1 -6.63892 -19.4487 0 
440 1 -5.51388 -19.4031 0 
442 1 -4.38984 -19.3578 0 
444 1 -3.26665 -19.3136 0 
446 1 -2.14356 -19.2699 0 
448 1 -1.02068 -19.2277 0 
449 1 -0.439656 -20.1972 0 
450 1 0.102102 -19.1884 0 
451 1 0.68297 -20.1585 0 
452 1 1.22441 -19.1503 0 
453 1 1.80513 -20.1215 0 
454 1 2.34672 -19.1139 0 
455 1 2.9275 -20.086 0 
456 1 3.469 -19.0794 0 
457 1 4.04997 -20.052 0 
459 1 5.17301 -20.0201 0 
461 1 6.29642 -19.9909 0 
463 1 7.42005 -19.9626 0 
465 1 8.5434 -19.9357 0 
467 1 9.66723 -19.911 0 
469 1 10.7916 -19.8889 0 
471 1 11.9161 -19.8672 0 
473 1 13.0403 -19.8471 0 
475 1 14.1648 -19.8277 0 
477 1 15.2898 -19.8104 0 
479 1 16.415 -19.7943 0 
481 1 17.54 -19.7795 0 
483 1 18.6653 -19.765 0 
485 1 19.7907 -19.7522 0 
487 1 20.9165 -19.74 0 
489 1 22.0425 -19.7283 0 
491 1 23.1686 -19.7171 0 
493 1 24.2947 -19.7071 0 
495 2 25.4205 -19.6978 0 
497 2 26.5477 -19.6905 0 
499 2 27.6751 -19.6838 0 
502 2 -27.0088 -18.2886 0 
504 2 -25.8793 -18.252 0 
506 2 -24.7497 -18.2147 0 
508 1 -23.6185 -18.175 0 
510 1 -22.4868 -18.1329 0 
512 1 -21.3549 -18.0911 0 
514 1 -20.2237 -18.0478 0 
515 1 -19.6345 -19.0001 0 
516 1 -19.0932 -18.0038 0 
517 1 -18.5044 -18.9562 0 
518 1 -17.9627 -17.9592 0 
519 1 -17.3737 -18.9114 0 
520 1 -16.8323 -17.9125 0 
521 1 -16.2436 -18.8651 0 
523 1 -15.1136 -18.8195 0 
525 1 -13.9846 -18.7726 0 
527 1 -12.8554 -18.7247 0 
529 1 -11.7271 -18.6778 0 
531 1 -10.5998 -18.6303 0 
533 1 -9.47305 -18.5828 0 
535 1 -8.34723 -18.5353 0 
537 1 -7.22188 -18.4876 0 
539 1 -6.09704 -18.4412 0 
541 1 -4.9726 -18.394 0 
543 1 -3.84898 -18.348 0 
545 1 -2.72579 -18.3039 0 
547 1 -1.60307 -18.2598 0 
549 1 -0.480129 -18.2188 0 
551 1 0.642824 -18.1791 0 
553 1 1.76542 -18.1416 0 
555 1 2.88791 -18.1059 0 
557 1 4.0106 -18.0726 0 
458 1 4.59208 -19.0466 0 
559 1 5.13363 -18.0404 0 
460 1 5.71534 -19.0156 0 
561 1 6.25755 -18.0108 0 
462 1 6.83871 -18.987 0 
563 1 7.38129 -17.9827 0 
464 1 7.96224 -18.9593 0 
565 1 8.50535 -17.9568 0 
466 1 9.08607 -18.934 0 
567 1 9.63005 -17.933 0 
468 1 10.2107 -18.9107 0 
569 1 10.7547 -17.9099 0 
470 1 11.3351 -18.8884 0 
472 1 12.4599 -18.8675 0 
474 1 13.5849 -18.8481 0 
476 1 14.7102 -18.8304 0 
478 1 15.8357 -18.814 0 
480 1 16.9613 -18.7988 0 
482 1 18.087 -18.7843 0 
484 1 19.2132 -18.7711 0 
486 1 20.3391 -18.7589 0 
488 1 21.4648 -18.7473 0 
490 1 22.591 -18.7357 0 
492 1 23.718 -18.7251 0 
494 1 24.8449 -18.7156 0 
496 2 25.9714 -18.7078 0 
498 2 27.0991 -18.7012 0 
500 2 28.2271 -18.6951 0 
601 2 -27.5979 -17.3354 0 
603 2 -26.4686 -17.2992 0 
605 2 -25.3391 -17.2621 0 
607 2 -24.2094 -17.2244 0 
609 1 -23.0778 -17.1821 0 
611 1 -21.946 -17.1396 0 
613 1 -20.8147 -17.0964 0 
615 1 -19.6836 -17.0526 0 
617 1 -18.5527 -17.008 0 
619 1 -17.4223 -16.9613 0 
522 1 -15.7012 -17.8668 0 
621 1 -16.2909 -16.9151 0 
524 1 -14.5715 -17.8192 0 
623 1 -15.1601 -16.867 0 
526 1 -13.4423 -17.771 0 
625 1 -14.0299 -16.8184 0 
528 1 -12.313 -17.7226 0 
627 1 -12.8999 -16.7693 0 
530 1 -11.1849 -17.6741 0 
532 1 -10.0573 -17.6255 0 
534 1 -8.93068 -17.5764 0 
536 1 -7.80491 -17.5277 0 
538 1 -6.6795 -17.4794 0 
540 1 -5.55515 -17.4315 0 
542 1 -4.43088 -17.3835 0 
544 1 -3.30717 -17.338 0 
546 1 -2.18442 -17.2927 0 
548 1 -1.06149 -17.2494 0 
550 1 0.0612495 -17.2088 0 
552 1 1.18424 -17.1695 0 
554 1 2.30699 -17.1322 0 
556 1 3.42976 -17.0978 0 
558 1 4.55249 -17.065 0 
560 1 5.67611 -17.035 0 
562 1 6.80017 -17.0059 0 
564 1 7.92469 -16.979 0 
566 1 9.04944 -16.9551 0 
568 1 10.1743 -16.9316 0 
571 1 11.8798 -17.8884 0 
570 1 11.2993 -16.9099 0 
573 1 13.005 -17.8687 0 
572 1 12.4248 -16.8895 0 
575 1 14.1307 -17.8505 0 
574 1 13.5507 -16.8706 0 
577 1 15.2565 -17.8339 0 
576 1 14.6771 -16.8536 0 
579 1 16.3825 -17.8181 0 
578 1 15.8033 -16.8377 0 
581 1 17.5085 -17.8034 0 
580 1 16.9299 -16.8226 0 
583 1 18.6343 -17.7896 0 
582 1 18.0562 -16.808 0 
585 1 19.7604 -17.7773 0 
584 1 19.1825 -16.7951 0 
587 1 20.8869 -17.7657 0 
586 1 20.3092 -16.784 0 
589 1 22.0134 -17.7543 0 
588 1 21.4363 -16.7728 0 
591 1 23.1402 -17.7441 0 
590 1 22.5635 -16.7625 0 
593 1 24.2675 -17.7339 0 
592 1 23.6906 -16.7527 0 
595 2 25.3948 -17.725 0 
594 1 24.8186 -16.7434 0 
596 2 25.9465 -16.7357 0 
597 2 26.5229 -17.7186 0 
598 2 27.0751 -16.7299 0 
599 2 27.6512 -17.7126 0 
600 2 28.2039 -16.7246 0 
602 2 -27.0583 -16.3463 0 
604 2 -25.929 -16.3096 0 
606 2 -24.7995 -16.2721 0 
608 1 -23.6685 -16.2321 0 
610 1 -22.5371 -16.1893 0 
612 1 -21.4058 -16.146 0 
614 1 -20.2746 -16.102 0 
616 1 -19.1435 -16.0577 0 
618 1 -18.0129 -16.0111 0 
620 1 -16.8814 -15.9644 0 
622 1 -15.7502 -15.9161 0 
624 1 -14.619 -15.8665 0 
626 1 -13.4885 -15.8172 0 
628 1 -12.359 -15.7662 0 
629 1 -11.771 -16.7195 0 
630 1 -11.2301 -15.7159 0 
631 1 -10.6428 -16.6701 0 
632 1 -10.1017 -15.6644 0 
633 1 -9.51547 -16.6195 0 
634 1 -8.97373 -15.6123 0 
635 1 -8.38903 -16.569 0 
637 1 -7.26353 -16.5193 0 
639 1 -6.1387 -16.4696 0 
641 1 -5.01408 -16.4209 0 
643 1 -3.88951 -16.3726 0 
645 1 -2.76657 -16.3257 0 
647 1 -1.64389 -16.281 0 
649 1 -0.52104 -16.2383 0 
651 1 0.601303 -16.198 0 
653 1 1.72403 -16.1594 0 
655 1 2.84737 -16.1237 0 
657 1 3.97057 -16.0899 0 
659 1 5.09405 -16.059 0 
661 1 6.21784 -16.0294 0 
663 1 7.34256 -16.0019 0 
665 1 8.46788 -15.9767 0 
667 1 9.59289 -15.9532 0 
669 1 10.7183 -15.9307 0 
671 1 11.8439 -15.9101 0 
673 1 12.9701 -15.8912 0 
675 1 14.0968 -15.8735 0 
677 1 15.2237 -15.8569 0 
679 1 16.3505 -15.8417 0 
681 1 17.4776 -15.8273 0 
683 1 18.6049 -15.8134 0 
685 1 19.732 -15.8017 0 
687 1 20.8592 -15.7908 0 
689 1 21.9865 -15.7804 0 
691 1 23.1139 -15.7706 0 
693 1 24.2419 -15.762 0 
695 2 25.3699 -15.7527 0 
697 2 26.4989 -15.7471 0 
699 2 27.6281 -15.742 0 
701 2 -27.6483 -15.3934 0 
703 2 -26.5193 -15.357 0 
705 2 -25.3901 -15.3199 0 
707 2 -24.2607 -15.282 0 
709 1 -23.1297 -15.2398 0 
711 1 -21.998 -15.1966 0 
713 1 -20.8664 -15.1522 0 
715 1 -19.7352 -15.1072 0 
717 1 -18.6042 -15.0614 0 
719 1 -17.4725 -15.0143 0 
721 1 -16.3412 -14.9662 0 
723 1 -15.2099 -14.9164 0 
725 1 -14.0786 -14.8661 0 
727 1 -12.9486 -14.8145 0 
729 1 -11.8187 -14.7628 0 
731 1 -10.6896 -14.7105 0 
733 1 -9.56076 -14.6576 0 
636 1 -7.84738 -15.5605 0 
735 1 -8.43288 -14.6038 0 
638 1 -6.72202 -15.5095 0 
737 1 -7.30628 -14.5507 0 
640 1 -5.59702 -15.4586 0 
739 1 -6.18117 -14.4981 0 
642 1 -4.47293 -15.4089 0 
644 1 -3.34929 -15.3595 0 
646 1 -2.22614 -15.3127 0 
648 1 -1.10357 -15.2688 0 
650 1 0.0188987 -15.2262 0 
652 1 1.14171 -15.1865 0 
654 1 2.26519 -15.1497 0 
656 1 3.38874 -15.115 0 
658 1 4.51246 -15.0826 0 
660 1 5.63612 -15.0523 0 
662 1 6.76054 -15.0245 0 
664 1 7.88612 -14.9986 0 
666 1 9.01202 -14.9745 0 
668 1 10.1377 -14.9516 0 
670 1 11.2641 -14.9301 0 
672 1 12.3902 -14.9106 0 
674 1 13.5164 -14.8931 0 
676 1 14.6431 -14.8764 0 
678 1 15.7703 -14.8603 0 
680 1 16.8977 -14.846 0 
682 1 18.0252 -14.8327 0 
684 1 19.1532 -14.8198 0 
686 1 20.2806 -14.8086 0 
688 1 21.4087 -14.7982 0 
690 1 22.5366 -14.7886 0 
692 1 23.6649 -14.78 0 
694 1 24.7936 -14.7714 0 
696 2 25.9226 -14.7642 0 
698 2 27.0521 -14.7592 0 
700 2 28.1818 -14.7547 0 
702 2 -27.11 -14.4044 0 
801 2 -27.7009 -13.4516 0 
704 2 -25.9811 -14.3676 0 
803 2 -26.5724 -13.4152 0 
706 2 -24.852 -14.3301 0 
805 2 -25.4437 -13.3781 0 
708 1 -23.7215 -14.2896 0 
807 2 -24.3146 -13.3401 0 
710 1 -22.5908 -14.2473 0 
809 1 -23.1835 -13.2974 0 
712 1 -21.4597 -14.2031 0 
714 1 -20.3282 -14.1577 0 
716 1 -19.1967 -14.1117 0 
718 1 -18.0653 -14.0651 0 
720 1 -16.9335 -14.0171 0 
722 1 -15.8017 -13.9676 0 
724 1 -14.6701 -13.9164 0 
726 1 -13.5394 -13.8642 0 
728 1 -12.4087 -13.8119 0 
730 1 -11.2789 -13.7581 0 
732 1 -10.1496 -13.7041 0 
734 1 -9.02097 -13.6492 0 
736 1 -7.89363 -13.5942 0 
738 1 -6.7671 -13.5391 0 
740 1 -5.64161 -13.4851 0 
741 1 -5.05647 -14.4459 0 
742 1 -4.51675 -13.4316 0 
743 1 -3.93272 -14.3951 0 
744 1 -3.39246 -13.3807 0 
745 1 -2.80912 -14.3461 0 
746 1 -2.26887 -13.3316 0 
747 1 -1.68576 -14.2994 0 
749 1 -0.563151 -14.255 0 
751 1 0.559777 -14.2139 0 
753 1 1.68315 -14.1755 0 
755 1 2.80658 -14.1396 0 
757 1 3.93008 -14.1061 0 
759 1 5.05366 -14.0751 0 
761 1 6.17831 -14.0462 0 
763 1 7.30381 -14.0203 0 
765 1 8.42973 -13.9957 0 
767 1 9.55541 -13.9723 0 
769 1 10.6821 -13.9507 0 
771 1 11.809 -13.9302 0 
773 1 12.9362 -13.9122 0 
775 1 14.0633 -13.8955 0 
777 1 15.1905 -13.8795 0 
779 1 16.3183 -13.8648 0 
781 1 17.4464 -13.8512 0 
783 1 18.5745 -13.839 0 
785 1 19.703 -13.8266 0 
787 1 20.8315 -13.8166 0 
789 1 21.9599 -13.8064 0 
791 1 23.0882 -13.7979 0 
793 1 24.2171 -13.7899 0 
795 2 25.3462 -13.7811 0 
797 2 26.4761 -13.7764 0 
799 2 27.6062 -13.772 0 
802 2 -27.164 -12.4626 0 
804 2 -26.0357 -12.4259 0 
806 2 -24.9071 -12.3884 0 
808 1 -23.7773 -12.3486 0 
810 1 -22.6467 -12.3046 0 
811 1 -22.053 -13.2538 0 
812 1 -21.5159 -12.2608 0 
813 1 -20.922 -13.2092 0 
814 1 -20.3848 -12.2156 0 
815 1 -19.7905 -13.1633 0 
816 1 -19.253 -12.1692 0 
817 1 -18.6588 -13.1168 0 
818 1 -18.1216 -12.1214 0 
819 1 -17.527 -13.0687 0 
821 1 -16.3953 -13.0196 0 
823 1 -15.2637 -12.9685 0 
825 1 -14.1322 -12.9152 0 
827 1 -13.0007 -12.8626 0 
829 1 -11.8699 -12.8079 0 
831 1 -10.7398 -12.7525 0 
833 1 -9.61006 -12.6963 0 
835 1 -8.48153 -12.6391 0 
837 1 -7.35438 -12.5824 0 
839 1 -6.22807 -12.5258 0 
841 1 -5.1023 -12.4703 0 
843 1 -3.97719 -12.4168 0 
845 1 -2.85317 -12.3651 0 
748 1 -1.14606 -13.2848 0 
847 1 -1.7299 -12.3155 0 
849 1 -0.606666 -12.27 0 
750 1 -0.0231094 -13.2415 0 
851 1 0.516499 -12.2279 0 
752 1 1.09999 -13.2015 0 
853 1 1.64002 -12.189 0 
754 1 2.22338 -13.1644 0 
756 1 3.34729 -13.1299 0 
758 1 4.47138 -13.0973 0 
760 1 5.59587 -13.0682 0 
762 1 6.72133 -13.0412 0 
764 1 7.8477 -13.0168 0 
766 1 8.97394 -12.993 0 
768 1 10.1006 -12.9711 0 
770 1 11.2276 -12.9501 0 
772 1 12.3554 -12.9316 0 
774 1 13.4831 -12.9144 0 
776 1 14.6111 -12.8986 0 
778 1 15.7393 -12.8837 0 
780 1 16.8676 -12.8697 0 
782 1 17.9961 -12.8571 0 
784 1 19.1248 -12.8457 0 
786 1 20.2539 -12.8345 0 
788 1 21.3829 -12.8246 0 
790 1 22.512 -12.8154 0 
792 1 23.6411 -12.8078 0 
794 1 24.7703 -12.7996 0 
796 2 25.9 -12.7934 0 
798 2 27.0306 -12.7893 0 
800 2 28.1612 -12.7854 0 
901 2 -27.7557 -11.5099 0 
903 2 -26.6279 -11.4735 0 
905 2 -25.4997 -11.4364 0 
907 2 -24.3713 -11.3985 0 
909 1 -23.2412 -11.3565 0 
911 1 -22.1102 -11.3123 0 
913 1 -20.9795 -11.2673 0 
915 1 -19.8483 -11.2218 0 
917 1 -18.7171 -11.1743 0 
820 1 -16.9899 -12.0719 0 
919 1 -17.5856 -11.1252 0 
822 1 -15.8579 -12.0212 0 
921 1 -16.4536 -11.0744 0 
824 1 -14.726 -11.9681 0 
923 1 -15.3218 -11.0217 0 
826 1 -13.5938 -11.9144 0 
828 1 -12.4624 -11.8595 0 
830 1 -11.3314 -11.8027 0 
832 1 -10.2011 -11.7455 0 
834 1 -9.07155 -11.6865 0 
836 1 -7.9427 -11.628 0 
838 1 -6.81533 -11.569 0 
840 1 -5.68901 -11.5108 0 
842 1 -4.56326 -11.4542 0 
844 1 -3.43881 -11.3998 0 
846 1 -2.31523 -11.3473 0 
848 1 -1.19168 -11.299 0 
850 1 -0.0684645 -11.2543 0 
852 1 1.05537 -11.2137 0 
855 1 2.76422 -12.1535 0 
854 1 2.17947 -11.177 0 
857 1 3.88851 -12.1199 0 
856 1 3.30417 -11.1424 0 
859 1 5.0138 -12.0896 0 
858 1 4.43003 -11.1118 0 
861 1 6.13906 -12.0619 0 
860 1 5.55618 -11.0826 0 
863 1 7.26521 -12.0372 0 
862 1 6.68261 -11.0569 0 
865 1 8.39171 -12.013 0 
864 1 7.809 -11.0327 0 
867 1 9.51886 -11.9912 0 
869 1 10.6458 -11.9697 0 
871 1 11.7736 -11.951 0 
873 1 12.9017 -11.9334 0 
875 1 14.0303 -11.9175 0 
877 1 15.1587 -11.9023 0 
879 1 16.2876 -11.8886 0 
881 1 17.4168 -11.8755 0 
883 1 18.5462 -11.8639 0 
885 1 19.6751 -11.8529 0 
887 1 20.8048 -11.8428 0 
889 1 21.9349 -11.8336 0 
891 1 23.065 -11.8257 0 
893 1 24.1945 -11.8177 0 
895 2 25.3239 -11.8103 0 
897 2 26.4549 -11.8064 0 
899 2 27.586 -11.8028 0 
902 2 -27.2202 -10.5209 0 
904 2 -26.0925 -10.4842 0 
906 2 -24.9646 -10.4468 0 
908 1 -23.8359 -10.4069 0 
910 1 -22.7061 -10.3644 0 
912 1 -21.5753 -10.3193 0 
914 1 -20.444 -10.2739 0 
916 1 -19.3134 -10.2269 0 
918 1 -18.1827 -10.1791 0 
920 1 -17.0508 -10.1289 0 
922 1 -15.9186 -10.0759 0 
924 1 -14.7863 -10.0226 0 
925 1 -14.1893 -10.9681 0 
926 1 -13.6541 -9.96662 0 
927 1 -13.0571 -10.9122 0 
928 1 -12.5215 -9.90906 0 
929 1 -11.9254 -10.8551 0 
930 1 -11.389 -9.85004 0 
931 1 -10.7938 -10.7965 0 
933 1 -9.66332 -10.7361 0 
935 1 -8.53347 -10.6763 0 
937 1 -7.40502 -10.6152 0 
939 1 -6.27777 -10.5538 0 
941 1 -5.1515 -10.4941 0 
943 1 -4.02644 -10.4358 0 
945 1 -2.9026 -10.3803 0 
947 1 -1.77886 -10.3287 0 
949 1 -0.655617 -10.2809 0 
951 1 0.468503 -10.2389 0 
953 1 1.59319 -10.2005 0 
955 1 2.71804 -10.1654 0 
957 1 3.84427 -10.1334 0 
959 1 4.9713 -10.104 0 
961 1 6.09897 -10.0771 0 
963 1 7.22623 -10.052 0 
965 1 8.35404 -10.0296 0 
866 1 8.9367 -11.0106 0 
967 1 9.48227 -10.008 0 
868 1 10.0644 -10.989 0 
969 1 10.611 -9.9884 0 
870 1 11.1927 -10.9696 0 
971 1 11.74 -9.97045 0 
872 1 12.3211 -10.952 0 
973 1 12.8694 -9.95409 0 
874 1 13.4501 -10.9361 0 
975 1 13.9987 -9.93895 0 
876 1 14.5794 -10.9207 0 
977 1 15.1288 -9.92501 0 
878 1 15.7089 -10.9068 0 
979 1 16.2588 -9.91163 0 
880 1 16.8381 -10.894 0 
981 1 17.3885 -9.90028 0 
882 1 17.968 -10.8821 0 
983 1 18.5188 -9.88865 0 
884 1 19.0977 -10.8709 0 
985 1 19.6494 -9.87933 0 
886 1 20.2276 -10.8612 0 
987 1 20.78 -9.87007 0 
888 1 21.3575 -10.852 0 
890 1 22.4881 -10.844 0 
989 1 21.9111 -9.86233 0 
892 1 23.6185 -10.8359 0 
991 1 23.042 -9.85448 0 
894 1 24.7489 -10.8285 0 
993 1 24.173 -9.84689 0 
896 2 25.8793 -10.8234 0 
995 2 25.3037 -9.84035 0 
898 2 27.0108 -10.8201 0 
997 2 26.4357 -9.83726 0 
900 2 28.1423 -10.817 0 
999 2 27.5677 -9.8344 0 
1001 2 -27.8125 -9.56805 0 
1003 2 -26.6854 -9.5318 0 
1005 2 -25.5581 -9.49477 0 
1007 2 -24.4305 -9.45693 0 
1009 1 -23.3007 -9.41487 0 
1011 1 -22.1715 -9.37159 0 
1013 1 -21.041 -9.32681 0 
1015 1 -19.9102 -9.28018 0 
1017 1 -18.7795 -9.2323 0 
1019 1 -17.6489 -9.18395 0 
1021 1 -16.5173 -9.1319 0 
1023 1 -15.3848 -9.07771 0 
1025 1 -14.2528 -9.02249 0 
1027 1 -13.12 -8.96496 0 
1029 1 -11.9871 -8.90566 0 
932 1 -10.2575 -9.78818 0 
1031 1 -10.8549 -8.84325 0 
934 1 -9.12652 -9.72628 0 
1033 1 -9.72235 -8.77922 0 
936 1 -7.99722 -9.66357 0 
1035 1 -8.59145 -8.71416 0 
938 1 -6.86873 -9.5996 0 
940 1 -5.74175 -9.53631 0 
942 1 -4.61643 -9.47437 0 
944 1 -3.4918 -9.41482 0 
946 1 -2.36808 -9.35976 0 
948 1 -1.24427 -9.3089 0 
950 1 -0.119761 -9.26437 0 
952 1 1.00524 -9.22487 0 
954 1 2.13123 -9.18799 0 
956 1 3.25772 -9.15534 0 
958 1 4.38488 -9.12537 0 
960 1 5.51281 -9.09768 0 
962 1 6.64147 -9.07203 0 
964 1 7.77049 -9.04849 0 
966 1 8.89949 -9.0267 0 
968 1 10.0292 -9.00711 0 
970 1 11.159 -8.98887 0 
972 1 12.289 -8.97227 0 
974 1 13.419 -8.95684 0 
976 1 14.549 -8.94291 0 
978 1 15.6793 -8.92963 0 
980 1 16.81 -8.91762 0 
982 1 17.9404 -8.90671 0 
984 1 19.0719 -8.89716 0 
986 1 20.2027 -8.88803 0 
988 1 21.3341 -8.8799 0 
990 1 22.4655 -8.87282 0 
992 1 23.5969 -8.86562 0 
994 1 24.7287 -8.85871 0 
996 2 25.8608 -8.85435 0 
998 2 26.9933 -8.85174 0 
1000 2 28.1257 -8.84931 0 
1002 2 -27.2783 -8.57905 0 
1101 2 -27.8711 -7.62598 0 
1004 2 -26.1516 -8.54247 0 
1103 2 -26.7449 -7.58983 0 
1006 2 -25.0246 -8.50509 0 
1105 2 -25.6186 -7.5529 0 
1008 1 -23.8961 -8.46559 0 
1107 2 -24.492 -7.51516 0 
1010 1 -22.7671 -8.42232 0 
1012 1 -21.6381 -8.37909 0 
1014 1 -20.5083 -8.33433 0 
1016 1 -19.378 -8.28668 0 
1018 1 -18.2475 -8.23816 0 
1020 1 -17.1169 -8.18792 0 
1022 1 -15.9855 -8.13448 0 
1024 1 -14.853 -8.07925 0 
1026 1 -13.7202 -8.02233 0 
1028 1 -12.5869 -7.96289 0 
1030 1 -11.4545 -7.90029 0 
1032 1 -10.321 -7.83578 0 
1034 1 -9.18813 -7.76815 0 
1036 1 -8.05712 -7.69998 0 
1037 1 -7.46188 -8.64838 0 
1038 1 -6.92732 -7.63022 0 
1039 1 -6.3332 -8.58133 0 
1041 1 -5.20672 -8.51549 0 
1043 1 -4.08158 -8.45197 0 
1045 1 -2.95749 -8.39168 0 
1047 1 -1.8336 -8.33812 0 
1049 1 -0.708812 -8.28978 0 
1051 1 0.416393 -8.24823 0 
1053 1 1.54242 -8.21099 0 
1055 1 2.66961 -8.17652 0 
1057 1 3.79737 -8.14628 0 
1059 1 4.92626 -8.11806 0 
1061 1 6.05591 -8.09173 0 
1063 1 7.18558 -8.06802 0 
1065 1 8.31576 -8.04591 0 
1067 1 9.44652 -8.0256 0 
1069 1 10.5771 -8.00707 0 
1071 1 11.7079 -7.99031 0 
1073 1 12.8385 -7.97488 0 
1075 1 13.9695 -7.96065 0 
1077 1 15.1004 -7.94711 0 
1079 1 16.2318 -7.93515 0 
1081 1 17.3628 -7.92394 0 
1083 1 18.4944 -7.91496 0 
1085 1 19.6256 -7.90566 0 
1087 1 20.7574 -7.8977 0 
1089 1 21.8897 -7.89043 0 
1091 1 23.0215 -7.88394 0 
1093 1 24.1535 -7.87744 0 
1095 2 25.2861 -7.87134 0 
1097 2 26.419 -7.86899 0 
1099 2 27.5519 -7.8668 0 
1102 2 -27.3381 -6.63684 0 
1104 2 -26.2124 -6.60035 0 
1106 2 -25.0865 -6.56307 0 
1108 1 -23.9596 -6.52389 0 
1109 1 -23.3645 -7.47394 0 
1110 1 -22.8323 -6.48251 0 
1111 1 -22.2355 -7.43058 0 
1112 1 -21.7041 -6.43894 0 
1113 1 -21.1064 -7.38707 0 
1114 1 -20.5759 -6.39441 0 
1115 1 -19.9771 -7.34133 0 
1116 1 -19.447 -6.34791 0 
1117 1 -18.8468 -7.29288 0 
1119 1 -17.7171 -7.24322 0 
1121 1 -16.5867 -7.19113 0 
1123 1 -15.4552 -7.13687 0 
1125 1 -14.3229 -7.08048 0 
1127 1 -13.1896 -7.02201 0 
1129 1 -12.0566 -6.95904 0 
1131 1 -10.9231 -6.8947 0 
1133 1 -9.78943 -6.82625 0 
1135 1 -8.65613 -6.75555 0 
1137 1 -7.52477 -6.68272 0 
1139 1 -6.39543 -6.60838 0 
1040 1 -5.79911 -7.55963 0 
1141 1 -5.26797 -6.53407 0 
1042 1 -4.6733 -7.49159 0 
1143 1 -4.14262 -6.46355 0 
1044 1 -3.54907 -7.42657 0 
1046 1 -2.42507 -7.36757 0 
1048 1 -1.30058 -7.31586 0 
1050 1 -0.174638 -7.27104 0 
1052 1 0.951802 -7.23271 0 
1054 1 2.07936 -7.19805 0 
1056 1 3.20823 -7.16649 0 
1058 1 4.33799 -7.13817 0 
1060 1 5.46816 -7.11183 0 
1062 1 6.59906 -7.08729 0 
1064 1 7.73045 -7.06534 0 
1066 1 8.86229 -7.04491 0 
1068 1 9.99392 -7.02549 0 
1070 1 11.1259 -7.00855 0 
1072 1 12.2578 -6.9925 0 
1074 1 13.3895 -6.97862 0 
1076 1 14.5216 -6.96475 0 
1078 1 15.6538 -6.95265 0 
1080 1 16.7854 -6.94128 0 
1082 1 17.9178 -6.93218 0 
1084 1 19.0499 -6.92318 0 
1086 1 20.1818 -6.91539 0 
1088 1 21.3143 -6.90858 0 
1090 1 22.447 -6.90166 0 
1092 1 23.5794 -6.89579 0 
1094 1 24.7121 -6.88994 0 
1096 2 25.8451 -6.88616 0 
1098 2 26.9784 -6.88422 0 
1100 2 28.1116 -6.88241 0 
1201 2 -27.9311 -5.68349 0 
1203 2 -26.806 -5.64742 0 
1205 2 -25.6808 -5.61059 0 