ITEM: TIMESTEP
4800
ITEM: NUMBER OF ATOMS
2850
ITEM: BOX BOUNDS ff ff pp
-42.092 42.092
-42.092 42.092
-0.280613 0.280613
ITEM: ATOMS id type xu yu zu 
1 2 -27.3398 -28.9988 0 
3 2 -26.2107 -28.9642 0 
5 2 -25.0816 -28.9291 0 
7 2 -23.9525 -28.8936 0 
9 2 -22.8235 -28.8577 0 
11 2 -21.6944 -28.8213 0 
13 2 -20.5655 -28.7844 0 
15 2 -19.4366 -28.7472 0 
17 2 -18.3079 -28.7095 0 
19 2 -17.1793 -28.6715 0 
21 2 -16.0508 -28.6331 0 
23 2 -14.9226 -28.5944 0 
25 2 -13.7947 -28.5554 0 
27 2 -12.667 -28.5163 0 
29 2 -11.5396 -28.477 0 
31 2 -10.4126 -28.4376 0 
33 2 -9.28592 -28.3982 0 
35 2 -8.15967 -28.3589 0 
37 2 -7.03386 -28.3198 0 
39 2 -5.90848 -28.281 0 
2 2 -26.7941 -28.0086 0 
4 2 -25.6649 -27.9736 0 
6 2 -24.5357 -27.9381 0 
8 2 -23.4065 -27.902 0 
10 2 -22.2773 -27.8656 0 
12 2 -21.1481 -27.8286 0 
14 2 -20.019 -27.7912 0 
16 2 -18.89 -27.7533 0 
18 2 -17.7611 -27.715 0 
20 2 -16.6324 -27.6763 0 
22 2 -15.5039 -27.6373 0 
24 2 -14.3755 -27.5979 0 
26 2 -13.2475 -27.5582 0 
28 2 -12.1197 -27.5183 0 
30 2 -10.9923 -27.4783 0 
32 2 -9.86522 -27.4382 0 
34 2 -8.73856 -27.3981 0 
36 2 -7.61233 -27.3581 0 
38 2 -6.48656 -27.3184 0 
40 2 -5.36126 -27.2789 0 
41 2 -4.78357 -28.2426 0 
42 2 -4.23645 -27.24 0 
43 2 -3.65912 -28.2046 0 
44 2 -3.11213 -27.2015 0 
45 2 -2.53513 -28.1673 0 
46 2 -1.98828 -27.1638 0 
47 2 -1.41159 -28.1307 0 
48 2 -0.8649 -27.1269 0 
49 2 -0.288464 -28.095 0 
51 2 0.834263 -28.0602 0 
53 2 1.95663 -28.0264 0 
55 2 3.07869 -27.9937 0 
57 2 4.20048 -27.9622 0 
59 2 5.32207 -27.9319 0 
61 2 6.4435 -27.9029 0 
63 2 7.56483 -27.8752 0 
65 2 8.68613 -27.8488 0 
67 2 9.80743 -27.8237 0 
69 2 10.9288 -27.8 0 
71 2 12.0503 -27.7775 0 
73 2 13.1719 -27.7563 0 
75 2 14.2937 -27.7363 0 
77 2 15.4157 -27.7174 0 
79 2 16.538 -27.6997 0 
81 2 17.6605 -27.683 0 
83 2 18.7832 -27.6673 0 
85 2 19.9063 -27.6526 0 
87 2 21.0296 -27.6388 0 
89 2 22.1532 -27.6258 0 
91 2 23.2771 -27.6136 0 
93 2 24.4012 -27.6022 0 
95 2 25.5256 -27.5914 0 
97 2 26.6503 -27.5812 0 
99 2 27.7752 -27.5717 0 
101 2 -27.378 -27.0533 0 
103 2 -26.2487 -27.0183 0 
102 2 -26.833 -26.0633 0 
105 2 -25.1194 -26.9828 0 
104 2 -25.7037 -26.0278 0 
107 2 -23.9901 -26.9468 0 
106 2 -24.5742 -25.9918 0 
109 2 -22.8607 -26.9102 0 
108 1 -23.4444 -25.955 0 
111 2 -21.7314 -26.8732 0 
113 2 -20.6021 -26.8357 0 
115 2 -19.4729 -26.7977 0 
117 2 -18.3437 -26.7591 0 
119 2 -17.2147 -26.7202 0 
121 2 -16.0858 -26.6808 0 
123 2 -14.9572 -26.641 0 
125 2 -13.8287 -26.6009 0 
127 2 -12.7006 -26.5605 0 
129 2 -11.5727 -26.5198 0 
131 2 -10.4452 -26.479 0 
133 2 -9.31813 -26.4382 0 
135 2 -8.19146 -26.3973 0 
137 2 -7.06526 -26.3566 0 
139 2 -5.93954 -26.3162 0 
141 2 -4.81433 -26.2762 0 
143 2 -3.68963 -26.2366 0 
145 2 -2.56545 -26.1977 0 
147 2 -1.44177 -26.1596 0 
50 2 0.258046 -27.0909 0 
149 2 -0.318563 -26.1224 0 
52 2 1.38059 -27.056 0 
151 2 0.804196 -26.0862 0 
54 2 2.50279 -27.0222 0 
153 2 1.92656 -26.0512 0 
56 2 3.62468 -26.9896 0 
155 2 3.04857 -26.0174 0 
58 2 4.74633 -26.9582 0 
157 2 4.1703 -25.9849 0 
60 2 5.86779 -26.9282 0 
159 2 5.2918 -25.9538 0 
62 2 6.98913 -26.8996 0 
64 2 8.11041 -26.8723 0 
66 2 9.23169 -26.8465 0 
68 2 10.353 -26.822 0 
70 2 11.4745 -26.7989 0 
72 2 12.596 -26.7771 0 
74 2 13.7178 -26.7566 0 
76 2 14.8398 -26.7373 0 
78 2 15.962 -26.7192 0 
80 2 17.0845 -26.7023 0 
82 2 18.2073 -26.6863 0 
84 2 19.3304 -26.6714 0 
86 2 20.4538 -26.6575 0 
88 2 21.5774 -26.6444 0 
90 2 22.7014 -26.6321 0 
92 2 23.8256 -26.6206 0 
94 2 24.9501 -26.6098 0 
96 2 26.0749 -26.5996 0 
98 2 27.2 -26.5901 0 
100 2 28.3253 -26.5811 0 
201 2 -27.4179 -25.1085 0 
203 2 -26.2885 -25.0731 0 
205 2 -25.159 -25.0372 0 
207 2 -24.0295 -25.0007 0 
209 1 -22.8993 -24.9627 0 
110 1 -22.3148 -25.9176 0 
211 1 -21.7694 -24.9245 0 
112 1 -21.1853 -25.8798 0 
213 1 -20.6397 -24.8859 0 
114 1 -20.0558 -25.8414 0 
215 1 -19.51 -24.8467 0 
116 1 -18.9264 -25.8026 0 
217 1 -18.3806 -24.8071 0 
118 1 -17.7972 -25.7633 0 
120 1 -16.6682 -25.7235 0 
122 1 -15.5394 -25.6833 0 
124 1 -14.4109 -25.6427 0 
126 1 -13.2826 -25.6019 0 
128 1 -12.1547 -25.5606 0 
130 1 -11.0271 -25.5191 0 
132 1 -9.89993 -25.4776 0 
134 1 -8.77323 -25.436 0 
136 1 -7.64697 -25.3944 0 
138 1 -6.52115 -25.3531 0 
140 1 -5.39585 -25.3121 0 
142 1 -4.27113 -25.2717 0 
144 1 -3.14689 -25.2318 0 
146 1 -2.0231 -25.1925 0 
148 1 -0.899719 -25.1543 0 
150 1 0.223257 -25.1171 0 
152 1 1.34582 -25.081 0 
154 1 2.46804 -25.0463 0 
156 1 3.59007 -25.0129 0 
158 1 4.71198 -24.9809 0 
160 1 5.83373 -24.9504 0 
161 2 6.41316 -25.9242 0 
162 1 6.95546 -24.9214 0 
163 2 7.53443 -25.896 0 
164 1 8.07711 -24.8939 0 
165 2 8.65568 -25.8693 0 
167 2 9.77697 -25.844 0 
166 1 9.19874 -24.8679 0 
169 2 10.8984 -25.8202 0 
168 1 10.3204 -24.8434 0 
171 2 12.0199 -25.7978 0 
170 1 11.4424 -24.8205 0 
173 2 13.1416 -25.7768 0 
175 2 14.2636 -25.7571 0 
177 2 15.3858 -25.7386 0 
179 2 16.5083 -25.7213 0 
181 2 17.6311 -25.7052 0 
183 2 18.7543 -25.6901 0 
185 2 19.8777 -25.6759 0 
187 2 21.0014 -25.6627 0 
189 2 22.1254 -25.6504 0 
191 2 23.2498 -25.6388 0 
193 2 24.3744 -25.628 0 
195 2 25.4993 -25.6179 0 
197 2 26.6245 -25.6084 0 
199 2 27.75 -25.5994 0 
202 2 -26.8739 -24.1187 0 
204 2 -25.7444 -24.0828 0 
206 2 -24.6148 -24.0464 0 
208 1 -23.4845 -24.0088 0 
210 1 -22.3544 -23.97 0 
212 1 -21.2244 -23.931 0 
214 1 -20.0946 -23.8916 0 
216 1 -18.9649 -23.8516 0 
219 1 -17.2514 -24.7669 0 
218 1 -17.8353 -23.811 0 
221 1 -16.1224 -24.7263 0 
220 1 -16.7061 -23.77 0 
222 1 -15.5771 -23.7285 0 
223 1 -14.9936 -24.6852 0 
224 1 -14.4483 -23.6865 0 
225 1 -13.8652 -24.6438 0 
227 1 -12.7371 -24.6021 0 
229 1 -11.6094 -24.5599 0 
231 1 -10.4821 -24.5177 0 
233 1 -9.35527 -24.4753 0 
235 1 -8.22885 -24.4329 0 
237 1 -7.10285 -24.3907 0 
239 1 -5.97743 -24.3487 0 
241 1 -4.85254 -24.3072 0 
243 1 -3.72818 -24.2663 0 
245 1 -2.60436 -24.2261 0 
247 1 -1.48086 -24.1867 0 
249 1 -0.357707 -24.1484 0 
251 1 0.765123 -24.1113 0 
253 1 1.88764 -24.0755 0 
255 1 3.00989 -24.0412 0 
257 1 4.13198 -24.0083 0 
259 1 5.25404 -23.9769 0 
261 1 6.37603 -23.947 0 
263 1 7.49805 -23.9187 0 
265 1 8.62011 -23.892 0 
267 1 9.7422 -23.8668 0 
269 1 10.8644 -23.8432 0 
271 1 11.9868 -23.8211 0 
172 1 12.5645 -24.7988 0 
273 1 13.1094 -23.8003 0 
174 1 13.6868 -24.7787 0 
275 1 14.2323 -23.7809 0 
176 1 14.8093 -24.7597 0 
277 1 15.3553 -23.7627 0 
178 1 15.9321 -24.742 0 
279 1 16.4786 -23.7458 0 
180 1 17.0552 -24.7255 0 
281 1 17.6022 -23.7301 0 
182 1 18.1785 -24.7101 0 
283 1 18.7259 -23.7153 0 
184 1 19.3021 -24.6957 0 
285 1 19.8499 -23.7016 0 
186 1 20.426 -24.6822 0 
287 1 20.9742 -23.6886 0 
188 1 21.5501 -24.6695 0 
289 1 22.0986 -23.6766 0 
190 1 22.6745 -24.6576 0 
291 1 23.2233 -23.6652 0 
192 1 23.7991 -24.6466 0 
293 1 24.3481 -23.6546 0 
194 1 24.9239 -24.6362 0 
295 2 25.4729 -23.6443 0 
196 2 26.0488 -24.6264 0 
198 2 27.1745 -24.6176 0 
200 2 28.3003 -24.6093 0 
301 2 -27.4598 -23.1644 0 
303 2 -26.3303 -23.1287 0 
305 2 -25.2007 -23.0924 0 
307 2 -24.071 -23.0555 0 
309 1 -22.9404 -23.0164 0 
311 1 -21.81 -22.9769 0 
313 1 -20.6799 -22.937 0 
315 1 -19.5499 -22.8968 0 
317 1 -18.4201 -22.8559 0 
319 1 -17.2906 -22.8144 0 
321 1 -16.1613 -22.7725 0 
323 1 -15.0322 -22.7301 0 
226 1 -13.32 -23.6442 0 
325 1 -13.9035 -22.6871 0 
327 1 -12.7753 -22.6437 0 
228 1 -12.1921 -23.6015 0 
329 1 -11.6476 -22.6002 0 
230 1 -11.0646 -23.5585 0 
331 1 -10.5202 -22.5562 0 
232 1 -9.93751 -23.5154 0 
333 1 -9.39327 -22.5122 0 
234 1 -8.81091 -23.4722 0 
236 1 -7.68475 -23.4291 0 
238 1 -6.55915 -23.386 0 
240 1 -5.43408 -23.3435 0 
242 1 -4.30946 -23.3015 0 
244 1 -3.18542 -23.26 0 
246 1 -2.06182 -23.2196 0 
248 1 -0.938605 -23.1802 0 
250 1 0.184339 -23.142 0 
252 1 1.30709 -23.1051 0 
254 1 2.42962 -23.0697 0 
256 1 3.55191 -23.0359 0 
258 1 4.67411 -23.0036 0 
260 1 5.79639 -22.9729 0 
262 1 6.91865 -22.9437 0 
264 1 8.04096 -22.9162 0 
266 1 9.16339 -22.8904 0 
268 1 10.2859 -22.8661 0 
270 1 11.4085 -22.8434 0 
272 1 12.5315 -22.822 0 
274 1 13.6546 -22.8021 0 
276 1 14.778 -22.7835 0 
278 1 15.9015 -22.7661 0 
280 1 17.0253 -22.75 0 
282 1 18.1493 -22.735 0 
284 1 19.2735 -22.7209 0 
286 1 20.3979 -22.7078 0 
288 1 21.5225 -22.6954 0 
290 1 22.6474 -22.6839 0 
292 1 23.7723 -22.6731 0 
294 1 24.8974 -22.6627 0 
297 2 26.5987 -23.6355 0 
296 2 26.0228 -22.6533 0 
299 2 27.7248 -23.6273 0 
298 2 27.149 -22.6452 0 
300 2 28.2755 -22.6376 0 
302 2 -26.9167 -22.1747 0 
304 2 -25.7871 -22.1385 0 
306 2 -24.6574 -22.1018 0 
308 1 -23.5269 -22.0634 0 
310 1 -22.3964 -22.0235 0 
312 1 -21.266 -21.9834 0 
314 1 -20.1358 -21.9427 0 
316 1 -19.0057 -21.9015 0 
318 1 -17.8759 -21.8596 0 
320 1 -16.7462 -21.8173 0 
322 1 -15.6169 -21.7744 0 
324 1 -14.4879 -21.7309 0 
326 1 -13.3593 -21.6869 0 
328 1 -12.2311 -21.6426 0 
330 1 -11.1035 -21.598 0 
332 1 -9.97624 -21.5531 0 
334 1 -8.84951 -21.5082 0 
335 1 -8.26687 -22.4682 0 
336 1 -7.72333 -21.4631 0 
337 1 -7.14108 -22.4241 0 
338 1 -6.5977 -21.4184 0 
339 1 -6.01576 -22.3805 0 
340 1 -5.47269 -21.3741 0 
341 1 -4.89095 -22.3374 0 
343 1 -3.76673 -22.2947 0 
345 1 -2.64293 -22.253 0 
347 1 -1.51949 -22.2125 0 
349 1 -0.396383 -22.1731 0 
351 1 0.726399 -22.1352 0 
353 1 1.84905 -22.0987 0 
355 1 2.97161 -22.0636 0 
357 1 4.09407 -22.0304 0 
359 1 5.21646 -21.9989 0 
361 1 6.33893 -21.9689 0 
363 1 7.46148 -21.9405 0 
365 1 8.58416 -21.914 0 
367 1 9.70691 -21.889 0 
369 1 10.8298 -21.8656 0 
371 1 11.9529 -21.8438 0 
373 1 13.0764 -21.8234 0 
375 1 14.2 -21.8043 0 
377 1 15.3237 -21.7865 0 
379 1 16.4478 -21.77 0 
381 1 17.572 -21.7547 0 
383 1 18.6965 -21.7403 0 
385 1 19.8212 -21.7268 0 
387 1 20.946 -21.7143 0 
389 1 22.071 -21.7026 0 
391 1 23.1961 -21.6915 0 
393 1 24.3213 -21.681 0 
395 2 25.4466 -21.6709 0 
397 2 26.573 -21.6629 0 
399 2 27.6998 -21.6554 0 
401 2 -27.5037 -21.2208 0 
403 2 -26.3741 -21.1849 0 
402 2 -26.9617 -20.2313 0 
405 2 -25.2445 -21.1483 0 
404 2 -25.8321 -20.1949 0 
407 2 -24.1147 -21.111 0 
409 1 -22.9837 -21.0709 0 
411 1 -21.853 -21.0304 0 
413 1 -20.7225 -20.9894 0 
415 1 -19.5922 -20.9478 0 
417 1 -18.462 -20.9056 0 
419 1 -17.332 -20.8629 0 
421 1 -16.2023 -20.8195 0 
423 1 -15.0729 -20.7755 0 
425 1 -13.9439 -20.731 0 
427 1 -12.8153 -20.686 0 
429 1 -11.6873 -20.6407 0 
431 1 -10.5597 -20.595 0 
433 1 -9.43265 -20.5491 0 
435 1 -8.30621 -20.5032 0 
437 1 -7.18021 -20.4573 0 
439 1 -6.05479 -20.4117 0 
342 1 -4.34822 -21.3302 0 
441 1 -4.92995 -20.3666 0 
344 1 -3.22411 -21.2872 0 
443 1 -3.80558 -20.3223 0 
346 1 -2.10045 -21.2454 0 
445 1 -2.68169 -20.279 0 
348 1 -0.977194 -21.2047 0 
447 1 -1.55827 -20.237 0 
350 1 0.145691 -21.1655 0 
352 1 1.26836 -21.1279 0 
354 1 2.39099 -21.0918 0 
356 1 3.51364 -21.0575 0 
358 1 4.63624 -21.0249 0 
360 1 5.75885 -20.9942 0 
362 1 6.88157 -20.965 0 
364 1 8.00448 -20.9377 0 
366 1 9.12751 -20.912 0 
368 1 10.2507 -20.8879 0 
370 1 11.374 -20.8655 0 
372 1 12.4976 -20.8446 0 
374 1 13.6214 -20.825 0 
376 1 14.7456 -20.8069 0 
378 1 15.8699 -20.79 0 
380 1 16.9943 -20.7744 0 
382 1 18.119 -20.7597 0 
384 1 19.244 -20.746 0 
386 1 20.3691 -20.7331 0 
388 1 21.4943 -20.7212 0 
390 1 22.6197 -20.71 0 
392 1 23.7452 -20.6994 0 
394 1 24.8709 -20.6892 0 
396 2 25.9969 -20.6804 0 
398 2 27.1238 -20.673 0 
400 2 28.251 -20.6661 0 
501 2 -27.5497 -19.2779 0 
503 2 -26.4202 -19.2417 0 
505 2 -25.2906 -19.2049 0 
406 2 -24.7023 -20.1579 0 
507 2 -24.1608 -19.1673 0 
408 1 -23.5716 -20.1189 0 
509 1 -23.0296 -19.1263 0 
410 1 -22.4409 -20.0781 0 
511 1 -21.8986 -19.0848 0 
412 1 -21.3101 -20.0368 0 
513 1 -20.7677 -19.0427 0 
414 1 -20.1795 -19.995 0 
416 1 -19.049 -19.9524 0 
418 1 -17.9187 -19.9093 0 
420 1 -16.7886 -19.8655 0 
422 1 -15.6588 -19.8211 0 
424 1 -14.5294 -19.776 0 
426 1 -13.4004 -19.7304 0 
428 1 -12.2718 -19.6842 0 
430 1 -11.1438 -19.6378 0 
432 1 -10.0163 -19.591 0 
434 1 -8.88941 -19.544 0 
436 1 -7.76309 -19.4971 0 
438 1 -6.63733 -19.4503 0 
440 1 -5.51217 -19.4039 0 
442 1 -4.38746 -19.3582 0 
444 1 -3.26332 -19.3134 0 
446 1 -2.13964 -19.2698 0 
448 1 -1.0164 -19.2278 0 
449 1 -0.43519 -20.1963 0 
450 1 0.106528 -19.1873 0 
451 1 0.687671 -20.1573 0 
452 1 1.2293 -19.1486 0 
453 1 1.81029 -20.1201 0 
454 1 2.3521 -19.1121 0 
455 1 2.93294 -20.0847 0 
456 1 3.47485 -19.0776 0 
457 1 4.05569 -20.0512 0 
459 1 5.17851 -20.0195 0 
461 1 6.30139 -19.9896 0 
463 1 7.42444 -19.9614 0 
465 1 8.54765 -19.935 0 
467 1 9.67109 -19.9103 0 
469 1 10.7947 -19.8872 0 
471 1 11.9185 -19.8657 0 
473 1 13.0426 -19.8458 0 
475 1 14.167 -19.8272 0 
477 1 15.2915 -19.8099 0 
479 1 16.4162 -19.794 0 
481 1 17.5412 -19.7791 0 
483 1 18.6664 -19.7651 0 
485 1 19.7918 -19.7521 0 
487 1 20.9174 -19.7399 0 
489 1 22.0431 -19.7285 0 
491 1 23.1688 -19.7178 0 
493 1 24.2947 -19.7076 0 
495 2 25.4205 -19.6978 0 
497 2 26.5477 -19.6905 0 
499 2 27.6751 -19.6838 0 
502 2 -27.0088 -18.2886 0 
504 2 -25.8793 -18.252 0 
506 2 -24.7497 -18.2147 0 
508 1 -23.6188 -18.1751 0 
510 1 -22.4878 -18.1334 0 
512 1 -21.3568 -18.0912 0 
514 1 -20.2259 -18.0483 0 
515 1 -19.637 -19 0 
516 1 -19.095 -18.0047 0 
517 1 -18.5063 -18.9565 0 
518 1 -17.9641 -17.9602 0 
519 1 -17.3759 -18.9124 0 
520 1 -16.8336 -17.915 0 
521 1 -16.2458 -18.8677 0 
523 1 -15.1159 -18.822 0 
525 1 -13.9864 -18.7759 0 
527 1 -12.8574 -18.729 0 
529 1 -11.7288 -18.6817 0 
531 1 -10.6008 -18.634 0 
533 1 -9.4734 -18.5859 0 
535 1 -8.34657 -18.5379 0 
537 1 -7.22046 -18.4899 0 
539 1 -6.09492 -18.4421 0 
541 1 -4.96994 -18.395 0 
543 1 -3.84554 -18.3487 0 
545 1 -2.72158 -18.3036 0 
547 1 -1.59811 -18.2599 0 
549 1 -0.474968 -18.2179 0 
551 1 0.647945 -18.1778 0 
553 1 1.77088 -18.1399 0 
555 1 2.89373 -18.104 0 
557 1 4.01665 -18.0704 0 
458 1 4.59779 -19.0449 0 
559 1 5.13984 -18.0388 0 
460 1 5.72086 -19.0142 0 
561 1 6.26316 -18.009 0 
462 1 6.84406 -18.9852 0 
563 1 7.38672 -17.9811 0 
464 1 7.96741 -18.9581 0 
565 1 8.51059 -17.955 0 
466 1 9.091 -18.9327 0 
567 1 9.6347 -17.9307 0 
468 1 10.2149 -18.909 0 
569 1 10.759 -17.9082 0 
470 1 11.3389 -18.887 0 
472 1 12.4634 -18.8664 0 
474 1 13.588 -18.8475 0 
476 1 14.7128 -18.8298 0 
478 1 15.8378 -18.8135 0 
480 1 16.963 -18.7983 0 
482 1 18.0885 -18.7842 0 
484 1 19.2141 -18.7709 0 
486 1 20.34 -18.7586 0 
488 1 21.466 -18.7471 0 
490 1 22.5921 -18.7362 0 
492 1 23.7183 -18.726 0 
494 1 24.8447 -18.7161 0 
496 2 25.9714 -18.7078 0 
498 2 27.0991 -18.7012 0 
500 2 28.2271 -18.6951 0 
601 2 -27.5979 -17.3354 0 
603 2 -26.4686 -17.2992 0 
605 2 -25.3391 -17.2621 0 
607 2 -24.2094 -17.2244 0 
609 1 -23.078 -17.1826 0 
611 1 -21.9468 -17.1402 0 
613 1 -20.8157 -17.0971 0 
615 1 -19.6846 -17.0534 0 
617 1 -18.5535 -17.009 0 
619 1 -17.4224 -16.9634 0 
522 1 -15.7033 -17.8691 0 
621 1 -16.2917 -16.917 0 
524 1 -14.5734 -17.8223 0 
623 1 -15.1613 -16.8698 0 
526 1 -13.4438 -17.7748 0 
625 1 -14.0313 -16.8218 0 
528 1 -12.3147 -17.7268 0 
627 1 -12.9016 -16.773 0 
530 1 -11.1862 -17.6781 0 
532 1 -10.0583 -17.6291 0 
534 1 -8.93091 -17.5799 0 
536 1 -7.80421 -17.5306 0 
538 1 -6.67821 -17.4815 0 
540 1 -5.55287 -17.4329 0 
542 1 -4.42815 -17.3849 0 
544 1 -3.30389 -17.3381 0 
546 1 -2.18019 -17.2927 0 
548 1 -1.05682 -17.2492 0 
550 1 0.0662456 -17.2074 0 
552 1 1.18922 -17.168 0 
554 1 2.31213 -17.1308 0 
556 1 3.43519 -17.0959 0 
558 1 4.55852 -17.0634 0 
560 1 5.68202 -17.0327 0 
562 1 6.80575 -17.0041 0 
564 1 7.92979 -16.9773 0 
566 1 9.0541 -16.9524 0 
568 1 10.1787 -16.9292 0 
571 1 11.8836 -17.8872 0 
570 1 11.3035 -16.9078 0 
573 1 13.0085 -17.8676 0 
572 1 12.4286 -16.8879 0 
575 1 14.1336 -17.8496 0 
574 1 13.554 -16.8694 0 
577 1 15.2589 -17.8329 0 
576 1 14.6796 -16.8522 0 
579 1 16.3845 -17.8175 0 
578 1 15.8054 -16.8366 0 
581 1 17.5102 -17.8032 0 
580 1 16.9315 -16.822 0 
583 1 18.6362 -17.7898 0 
582 1 18.0579 -16.8085 0 
585 1 19.7624 -17.7773 0 
584 1 19.1844 -16.796 0 
587 1 20.8887 -17.7656 0 
586 1 20.3111 -16.7841 0 
589 1 22.0152 -17.7546 0 
588 1 21.4379 -16.7731 0 
591 1 23.1417 -17.7443 0 
590 1 22.5649 -16.7627 0 
593 1 24.2683 -17.7344 0 
592 1 23.6919 -16.7527 0 
595 2 25.3948 -17.725 0 
594 1 24.819 -16.7434 0 
596 2 25.9465 -16.7357 0 
597 2 26.5229 -17.7186 0 
598 2 27.0751 -16.7299 0 
599 2 27.6512 -17.7126 0 
600 2 28.2039 -16.7246 0 
602 2 -27.0583 -16.3463 0 
604 2 -25.929 -16.3096 0 
606 2 -24.7995 -16.2721 0 
608 1 -23.6687 -16.2321 0 
610 1 -22.5376 -16.1898 0 
612 1 -21.4064 -16.1467 0 
614 1 -20.2751 -16.1029 0 
616 1 -19.1437 -16.0582 0 
618 1 -18.0125 -16.0127 0 
620 1 -16.8813 -15.966 0 
622 1 -15.7505 -15.9183 0 
624 1 -14.6199 -15.8698 0 
626 1 -13.4897 -15.8205 0 
628 1 -12.36 -15.7703 0 
629 1 -11.7724 -16.7235 0 
630 1 -11.2308 -15.7192 0 
631 1 -10.6439 -16.6735 0 
632 1 -10.1022 -15.6679 0 
633 1 -9.51604 -16.6232 0 
634 1 -8.97438 -15.616 0 
635 1 -8.3888 -16.5726 0 
637 1 -7.26215 -16.5221 0 
639 1 -6.1363 -16.4719 0 
641 1 -5.01121 -16.4223 0 
643 1 -3.88669 -16.3738 0 
645 1 -2.76279 -16.3265 0 
647 1 -1.63924 -16.2811 0 
649 1 -0.516008 -16.2376 0 
651 1 0.607109 -16.1965 0 
653 1 1.73013 -16.1578 0 
655 1 2.85332 -16.1217 0 
657 1 3.97677 -16.0881 0 
659 1 5.10035 -16.0565 0 
661 1 6.22427 -16.0271 0 
663 1 7.34846 -15.9996 0 
665 1 8.47298 -15.974 0 
667 1 9.59781 -15.9503 0 
669 1 10.723 -15.9283 0 
671 1 11.8484 -15.908 0 
673 1 12.9741 -15.8891 0 
675 1 14.1001 -15.8716 0 
677 1 15.2264 -15.8556 0 
679 1 16.3527 -15.8408 0 
681 1 17.4794 -15.8271 0 
683 1 18.6062 -15.8145 0 
685 1 19.7332 -15.8026 0 
687 1 20.8604 -15.7915 0 
689 1 21.9877 -15.7811 0 
691 1 23.1151 -15.7711 0 
693 1 24.2426 -15.7617 0 
695 2 25.3699 -15.7527 0 
697 2 26.4989 -15.7471 0 
699 2 27.6281 -15.742 0 
701 2 -27.6483 -15.3934 0 
703 2 -26.5193 -15.357 0 
705 2 -25.3901 -15.3199 0 
707 2 -24.2607 -15.282 0 
709 1 -23.1293 -15.2397 0 
711 1 -21.9981 -15.1967 0 
713 1 -20.8667 -15.1529 0 
715 1 -19.7352 -15.1083 0 
717 1 -18.6036 -15.0626 0 
719 1 -17.4722 -15.0159 0 
721 1 -16.3409 -14.968 0 
723 1 -15.2099 -14.9191 0 
725 1 -14.0791 -14.8691 0 
727 1 -12.9487 -14.8183 0 
729 1 -11.8189 -14.7665 0 
731 1 -10.6895 -14.714 0 
733 1 -9.56098 -14.661 0 
636 1 -7.8472 -15.5642 0 
735 1 -8.43321 -14.6077 0 
638 1 -6.72074 -15.5123 0 
737 1 -7.3062 -14.5542 0 
640 1 -5.59511 -15.4608 0 
739 1 -6.17999 -14.5009 0 
642 1 -4.47021 -15.4105 0 
644 1 -3.34602 -15.3613 0 
646 1 -2.22226 -15.3138 0 
648 1 -1.0989 -15.2685 0 
650 1 0.0243786 -15.2256 0 
652 1 1.14763 -15.1852 0 
654 1 2.27095 -15.1476 0 
656 1 3.39448 -15.1128 0 
658 1 4.51821 -15.0802 0 
660 1 5.64226 -15.0499 0 
662 1 6.76664 -15.0217 0 
664 1 7.89139 -14.9955 0 
666 1 9.01647 -14.9713 0 
668 1 10.1419 -14.9488 0 
670 1 11.2678 -14.9279 0 
672 1 12.3939 -14.9086 0 
674 1 13.5202 -14.8909 0 
676 1 14.6469 -14.8746 0 
678 1 15.7737 -14.8595 0 
680 1 16.9007 -14.8457 0 
682 1 18.0279 -14.8328 0 
684 1 19.1553 -14.821 0 
686 1 20.2829 -14.8098 0 
688 1 21.4106 -14.7994 0 
690 1 22.5383 -14.7894 0 
692 1 23.6662 -14.7801 0 
694 1 24.7943 -14.7712 0 
696 2 25.9226 -14.7642 0 
698 2 27.0521 -14.7592 0 
700 2 28.1818 -14.7547 0 
702 2 -27.11 -14.4044 0 
801 2 -27.7009 -13.4516 0 
704 2 -25.9811 -14.3676 0 
803 2 -26.5724 -13.4152 0 
706 2 -24.852 -14.3301 0 
805 2 -25.4437 -13.3781 0 
708 1 -23.7214 -14.2899 0 
807 2 -24.3146 -13.3401 0 
710 1 -22.5904 -14.2471 0 
809 1 -23.1836 -13.2976 0 
712 1 -21.4591 -14.2034 0 
714 1 -20.3276 -14.1589 0 
716 1 -19.196 -14.1133 0 
718 1 -18.0644 -14.0665 0 
720 1 -16.9327 -14.0187 0 
722 1 -15.8012 -13.9694 0 
724 1 -14.6698 -13.9191 0 
726 1 -13.5388 -13.8677 0 
728 1 -12.4083 -13.8152 0 
730 1 -11.2782 -13.7618 0 
732 1 -10.1489 -13.7076 0 
734 1 -9.02036 -13.6529 0 
736 1 -7.89268 -13.5978 0 
738 1 -6.76587 -13.5427 0 
740 1 -5.63977 -13.4882 0 
741 1 -5.05447 -14.4485 0 
742 1 -4.51459 -13.4345 0 
743 1 -3.92979 -14.3972 0 
744 1 -3.39017 -13.3825 0 
745 1 -2.80572 -14.3476 0 
746 1 -2.26637 -13.3326 0 
747 1 -1.68216 -14.3001 0 
749 1 -0.558852 -14.2552 0 
751 1 0.564488 -14.2131 0 
753 1 1.68798 -14.1738 0 
755 1 2.81162 -14.1376 0 
757 1 3.93549 -14.1039 0 
759 1 5.0597 -14.0727 0 
761 1 6.1843 -14.0437 0 
763 1 7.30936 -14.0169 0 
765 1 8.43479 -13.9921 0 
767 1 9.5606 -13.9691 0 
769 1 10.6868 -13.9479 0 
771 1 11.8132 -13.9281 0 
773 1 12.94 -13.9101 0 
775 1 14.067 -13.8935 0 
777 1 15.1942 -13.8781 0 
779 1 16.3216 -13.8641 0 
781 1 17.4493 -13.8511 0 
783 1 18.5771 -13.8391 0 
785 1 19.705 -13.828 0 
787 1 20.833 -13.8175 0 
789 1 21.9612 -13.8077 0 
791 1 23.0895 -13.7984 0 
793 1 24.2179 -13.7896 0 
795 2 25.3462 -13.7811 0 
797 2 26.4761 -13.7764 0 
799 2 27.6062 -13.772 0 
802 2 -27.164 -12.4626 0 
804 2 -26.0357 -12.4259 0 
806 2 -24.9071 -12.3884 0 
808 1 -23.7769 -12.3481 0 
810 1 -22.6462 -12.3052 0 
811 1 -22.0524 -13.2543 0 
812 1 -21.5151 -12.2613 0 
813 1 -20.9209 -13.2099 0 
814 1 -20.3836 -12.2163 0 
815 1 -19.7893 -13.1646 0 
816 1 -19.2519 -12.1699 0 
817 1 -18.6576 -13.118 0 
818 1 -18.12 -12.1225 0 
819 1 -17.5257 -13.0703 0 
821 1 -16.3938 -13.0209 0 
823 1 -15.2621 -12.9703 0 
825 1 -14.1305 -12.9185 0 
827 1 -12.9993 -12.8654 0 
829 1 -11.8685 -12.8112 0 
831 1 -10.7383 -12.7559 0 
833 1 -9.60901 -12.6998 0 
835 1 -8.4805 -12.6432 0 
837 1 -7.35284 -12.5862 0 
839 1 -6.22606 -12.5295 0 
841 1 -5.10037 -12.4735 0 
843 1 -3.97547 -12.4188 0 
845 1 -2.8513 -12.3662 0 
748 1 -1.14287 -13.2854 0 
847 1 -1.72758 -12.3166 0 
849 1 -0.603981 -12.27 0 
750 1 -0.0194849 -13.2414 0 
851 1 0.519732 -12.2273 0 
752 1 1.10414 -13.2005 0 
853 1 1.64371 -12.1877 0 
754 1 2.22802 -13.1625 0 
756 1 3.35215 -13.1276 0 
758 1 4.47659 -13.0954 0 
760 1 5.60145 -13.0656 0 
762 1 6.72683 -13.0381 0 
764 1 7.85253 -13.0128 0 
766 1 8.97873 -12.9893 0 
768 1 10.1053 -12.9677 0 
770 1 11.2321 -12.9476 0 
772 1 12.3594 -12.9291 0 
774 1 13.4869 -12.9122 0 
776 1 14.6144 -12.8966 0 
778 1 15.7423 -12.8824 0 
780 1 16.8704 -12.8693 0 
782 1 17.9987 -12.8572 0 
784 1 19.1271 -12.846 0 
786 1 20.2556 -12.8356 0 
788 1 21.3841 -12.8258 0 
790 1 22.5128 -12.8167 0 
792 1 23.6417 -12.808 0 
794 1 24.7707 -12.7996 0 
796 2 25.9 -12.7934 0 
798 2 27.0306 -12.7893 0 
800 2 28.1612 -12.7854 0 
901 2 -27.7557 -11.5099 0 
903 2 -26.6279 -11.4735 0 
905 2 -25.4997 -11.4364 0 
907 2 -24.3713 -11.3985 0 
909 1 -23.2407 -11.3561 0 
911 1 -22.1099 -11.3126 0 
913 1 -20.9787 -11.2682 0 
915 1 -19.8472 -11.2223 0 
917 1 -18.7154 -11.1752 0 
820 1 -16.988 -12.0734 0 
919 1 -17.5834 -11.1265 0 
822 1 -15.8559 -12.0227 0 
921 1 -16.4513 -11.0761 0 
824 1 -14.724 -11.9707 0 
923 1 -15.3191 -11.024 0 
826 1 -13.5922 -11.9171 0 
828 1 -12.4606 -11.8622 0 
830 1 -11.3295 -11.806 0 
832 1 -10.1992 -11.7486 0 
834 1 -9.06979 -11.6905 0 
836 1 -7.9413 -11.6317 0 
838 1 -6.8137 -11.5728 0 
840 1 -5.6873 -11.5142 0 
842 1 -4.56195 -11.4568 0 
844 1 -3.43745 -11.4011 0 
846 1 -2.31345 -11.3486 0 
848 1 -1.18969 -11.2996 0 
850 1 -0.0658038 -11.2544 0 
852 1 1.0583 -11.213 0 
855 1 2.76805 -12.1514 0 
854 1 2.18283 -11.1753 0 
857 1 3.89272 -12.1181 0 
856 1 3.30779 -11.1407 0 
859 1 5.01787 -12.0875 0 
858 1 4.43329 -11.1093 0 
861 1 6.14351 -12.0593 0 
860 1 5.55931 -11.0803 0 
863 1 7.26967 -12.0333 0 
862 1 6.68598 -11.0539 0 
865 1 8.3962 -12.0094 0 
864 1 7.81309 -11.0293 0 
867 1 9.52321 -11.9873 0 
869 1 10.6506 -11.967 0 
871 1 11.7782 -11.9482 0 
873 1 12.9062 -11.9309 0 
875 1 14.0344 -11.915 0 
877 1 15.1628 -11.9006 0 
879 1 16.2914 -11.8873 0 
881 1 17.4201 -11.8752 0 
883 1 18.549 -11.8639 0 
885 1 19.678 -11.8534 0 
887 1 20.807 -11.8437 0 
889 1 21.9362 -11.8348 0 
891 1 23.0655 -11.8262 0 
893 1 24.1947 -11.8181 0 
895 2 25.3239 -11.8103 0 
897 2 26.4549 -11.8064 0 
899 2 27.586 -11.8028 0 
902 2 -27.2202 -10.5209 0 
904 2 -26.0925 -10.4842 0 
906 2 -24.9646 -10.4468 0 
908 1 -23.8352 -10.4067 0 
910 1 -22.7051 -10.3639 0 
912 1 -21.5744 -10.32 0 
914 1 -20.4433 -10.2749 0 
916 1 -19.3118 -10.2282 0 
918 1 -18.18 -10.1801 0 
920 1 -17.048 -10.1301 0 
922 1 -15.9157 -10.0784 0 
924 1 -14.7833 -10.0248 0 
925 1 -14.1868 -10.9703 0 
926 1 -13.6507 -9.96936 0 
927 1 -13.0546 -10.915 0 
928 1 -12.5181 -9.91194 0 
929 1 -11.9228 -10.858 0 
930 1 -11.386 -9.85267 0 
931 1 -10.7915 -10.7996 0 
933 1 -9.66093 -10.7399 0 
935 1 -8.53147 -10.6794 0 
937 1 -7.40299 -10.6184 0 
939 1 -6.27568 -10.5571 0 
941 1 -5.1496 -10.4967 0 
943 1 -4.0246 -10.4379 0 
945 1 -2.90019 -10.382 0 
947 1 -1.77629 -10.3299 0 
949 1 -0.652433 -10.282 0 
951 1 0.471787 -10.2386 0 
953 1 1.59658 -10.1992 0 
955 1 2.72191 -10.1634 0 
957 1 3.84786 -10.1309 0 
959 1 4.97433 -10.1012 0 
961 1 6.10147 -10.0742 0 
963 1 7.22916 -10.0493 0 
965 1 8.35735 -10.0263 0 
866 1 8.94057 -11.0069 0 
967 1 9.4859 -10.0054 0 
868 1 10.0685 -10.9862 0 
969 1 10.6147 -9.98593 0 
870 1 11.1967 -10.9672 0 
971 1 11.7438 -9.96823 0 
872 1 12.3252 -10.9496 0 
973 1 12.8732 -9.95179 0 
874 1 13.454 -10.9334 0 
975 1 14.0029 -9.93683 0 
876 1 14.5831 -10.9187 0 
977 1 15.1326 -9.92309 0 
878 1 15.7121 -10.9053 0 
979 1 16.2624 -9.91058 0 
880 1 16.8413 -10.8929 0 
981 1 17.3924 -9.89932 0 
882 1 17.9707 -10.8816 0 
983 1 18.5224 -9.8888 0 
884 1 19.1002 -10.8712 0 
985 1 19.6525 -9.87924 0 
886 1 20.2298 -10.8615 0 
987 1 20.7827 -9.87033 0 
888 1 21.3595 -10.8527 0 
890 1 22.4892 -10.8443 0 
989 1 21.913 -9.86211 0 
892 1 23.619 -10.8364 0 
991 1 23.0432 -9.85456 0 
894 1 24.749 -10.8289 0 
993 1 24.1735 -9.8473 0 
896 2 25.8793 -10.8234 0 
995 2 25.3037 -9.84035 0 
898 2 27.0108 -10.8201 0 
997 2 26.4357 -9.83726 0 
900 2 28.1423 -10.817 0 
999 2 27.5677 -9.8344 0 
1001 2 -27.8125 -9.56805 0 
1003 2 -26.6854 -9.5318 0 
1005 2 -25.5581 -9.49477 0 
1007 2 -24.4305 -9.45693 0 
1009 1 -23.3007 -9.41488 0 
1011 1 -22.1706 -9.37179 0 
1013 1 -21.04 -9.32736 0 
1015 1 -19.9091 -9.28144 0 
1017 1 -18.7777 -9.23392 0 
1019 1 -17.6461 -9.18461 0 
1021 1 -16.514 -9.13344 0 
1023 1 -15.3816 -9.08028 0 
1025 1 -14.2488 -9.025 0 
1027 1 -13.1159 -8.96765 0 
1029 1 -11.9831 -8.90794 0 
932 1 -10.2544 -9.79185 0 
1031 1 -10.8506 -8.84616 0 
934 1 -9.12368 -9.72948 0 
1033 1 -9.71861 -8.78251 0 
936 1 -7.99401 -9.66633 0 
1035 1 -8.58757 -8.71722 0 
938 1 -6.86571 -9.60253 0 
940 1 -5.73871 -9.53894 0 
942 1 -4.61299 -9.47659 0 
944 1 -3.48824 -9.41706 0 
946 1 -2.36416 -9.36127 0 
948 1 -1.24022 -9.31029 0 
950 1 -0.115907 -9.26432 0 
952 1 1.009 -9.22308 0 
954 1 2.13473 -9.18605 0 
956 1 3.26121 -9.15252 0 
958 1 4.38834 -9.12199 0 
960 1 5.5162 -9.09438 0 
962 1 6.64453 -9.06904 0 
964 1 7.77341 -9.04577 0 
966 1 8.90272 -9.02435 0 
968 1 10.0322 -9.00464 0 
970 1 11.1621 -8.98673 0 
972 1 12.2921 -8.97007 0 
974 1 13.4224 -8.95493 0 
976 1 14.5529 -8.94099 0 
978 1 15.6835 -8.9283 0 
980 1 16.8141 -8.91686 0 
982 1 17.9447 -8.90635 0 
984 1 19.0754 -8.89677 0 
986 1 20.206 -8.88795 0 
988 1 21.3367 -8.87982 0 
990 1 22.4676 -8.87241 0 
992 1 23.5985 -8.86555 0 
994 1 24.7295 -8.85898 0 
996 2 25.8608 -8.85435 0 
998 2 26.9933 -8.85174 0 
1000 2 28.1257 -8.84931 0 
1002 2 -27.2783 -8.57905 0 
1101 2 -27.8711 -7.62598 0 
1004 2 -26.1516 -8.54247 0 
1103 2 -26.7449 -7.58983 0 
1006 2 -25.0246 -8.50509 0 
1105 2 -25.6186 -7.5529 0 
1008 1 -23.8962 -8.46537 0 
1107 2 -24.492 -7.51516 0 
1010 1 -22.767 -8.4231 0 
1012 1 -21.6372 -8.37963 0 
1014 1 -20.507 -8.33453 0 
1016 1 -19.3763 -8.2879 0 
1018 1 -18.2452 -8.23932 0 
1020 1 -17.1137 -8.18884 0 
1022 1 -15.9816 -8.13639 0 
1024 1 -14.8491 -8.08177 0 
1026 1 -13.716 -8.02466 0 
1028 1 -12.5829 -7.96505 0 
1030 1 -11.4497 -7.90297 0 
1032 1 -10.3166 -7.83826 0 
1034 1 -9.18414 -7.77133 0 
1036 1 -8.0529 -7.70247 0 
1037 1 -7.45789 -8.65079 0 
1038 1 -6.92326 -7.63246 0 
1039 1 -6.32971 -8.58399 0 
1041 1 -5.20315 -8.51785 0 
1043 1 -4.07788 -8.45399 0 
1045 1 -2.9536 -8.39399 0 
1047 1 -1.82953 -8.33927 0 
1049 1 -0.705095 -8.29043 0 
1051 1 0.420142 -8.24705 0 
1053 1 1.54631 -8.20849 0 
1055 1 2.67339 -8.17395 0 
1057 1 3.80116 -8.14262 0 
1059 1 4.92975 -8.11443 0 
1061 1 6.05896 -8.0887 0 
1063 1 7.18871 -8.06515 0 
1065 1 8.31887 -8.04342 0 
1067 1 9.44931 -8.02336 0 
1069 1 10.58 -8.00514 0 
1071 1 11.7109 -7.98836 0 
1073 1 12.842 -7.97293 0 
1075 1 13.9731 -7.9589 0 
1077 1 15.1043 -7.94606 0 
1079 1 16.2356 -7.93435 0 
1081 1 17.3669 -7.9238 0 
1083 1 18.4982 -7.91422 0 
1085 1 19.6294 -7.90541 0 
1087 1 20.7607 -7.89739 0 
1089 1 21.8921 -7.89011 0 
1091 1 23.0235 -7.88345 0 
1093 1 24.1548 -7.87732 0 
1095 2 25.2861 -7.87134 0 
1097 2 26.419 -7.86899 0 
1099 2 27.5519 -7.8668 0 
1102 2 -27.3381 -6.63684 0 
1104 2 -26.2124 -6.60035 0 
1106 2 -25.0865 -6.56307 0 
1108 1 -23.9595 -6.52389 0 
1109 1 -23.3635 -7.4739 0 
1110 1 -22.8317 -6.48243 0 
1111 1 -22.2345 -7.43133 0 
1112 1 -21.7034 -6.43946 0 
1113 1 -21.1051 -7.38735 0 
1114 1 -20.5746 -6.39478 0 
1115 1 -19.9753 -7.34156 0 
1116 1 -19.4453 -6.34833 0 
1117 1 -18.8451 -7.29405 0 
1119 1 -17.7144 -7.24439 0 
1121 1 -16.583 -7.19278 0 
1123 1 -15.451 -7.13899 0 
1125 1 -14.3185 -7.08276 0 
1127 1 -13.1854 -7.02367 0 
1129 1 -12.0518 -6.96184 0 
1131 1 -10.918 -6.89685 0 
1133 1 -9.78426 -6.82873 0 
1135 1 -8.65136 -6.75792 0 
1137 1 -7.51983 -6.68478 0 
1139 1 -6.39029 -6.61039 0 
1040 1 -5.79538 -7.56218 0 
1141 1 -5.26293 -6.5365 0 
1042 1 -4.66923 -7.49351 0 
1143 1 -4.13752 -6.46538 0 
1044 1 -3.54452 -7.42843 0 
1046 1 -2.42034 -7.36919 0 
1048 1 -1.29583 -7.31671 0 
1050 1 -0.170381 -7.27103 0 
1052 1 0.956193 -7.23072 0 
1054 1 2.08393 -7.1952 0 
1056 1 3.21264 -7.16317 0 
1058 1 4.34221 -7.13436 0 
1060 1 5.4724 -7.10824 0 
1062 1 6.60316 -7.08438 0 
1064 1 7.73432 -7.06242 0 
1066 1 8.86579 -7.0422 0 
1068 1 9.99749 -7.02361 0 
1070 1 11.1293 -7.00659 0 
1072 1 12.2611 -6.99091 0 
1074 1 13.3931 -6.97663 0 
1076 1 14.525 -6.96369 0 
1078 1 15.6571 -6.95189 0 
1080 1 16.7891 -6.94114 0 
1082 1 17.9211 -6.93155 0 
1084 1 19.053 -6.92272 0 
1086 1 20.1849 -6.91483 0 
1088 1 21.3168 -6.90769 0 
1090 1 22.4488 -6.90119 0 
1092 1 23.5807 -6.89525 0 
1094 1 24.7127 -6.88987 0 
1096 2 25.8451 -6.88616 0 
1098 2 26.9784 -6.88422 0 
1100 2 28.1116 -6.88241 0 
1201 2 -27.9311 -5.68349 0 
1203 2 -26.806 -5.64742 0 
1205 2 -25.6808 -5.61059 0 
1207 2 -24.5554 -5.57295 0 