ITEM: TIMESTEP
1900
ITEM: NUMBER OF ATOMS
2850
ITEM: BOX BOUNDS ff ff pp
-42.092 42.092
-42.092 42.092
-0.280613 0.280613
ITEM: ATOMS id type xu yu zu 
1 2 -27.3398 -28.9988 0 
3 2 -26.2107 -28.9642 0 
5 2 -25.0816 -28.9291 0 
7 2 -23.9525 -28.8936 0 
9 2 -22.8235 -28.8577 0 
11 2 -21.6944 -28.8213 0 
13 2 -20.5655 -28.7844 0 
15 2 -19.4366 -28.7472 0 
17 2 -18.3079 -28.7095 0 
19 2 -17.1793 -28.6715 0 
21 2 -16.0508 -28.6331 0 
23 2 -14.9226 -28.5944 0 
25 2 -13.7947 -28.5554 0 
27 2 -12.667 -28.5163 0 
29 2 -11.5396 -28.477 0 
31 2 -10.4126 -28.4376 0 
33 2 -9.28592 -28.3982 0 
35 2 -8.15967 -28.3589 0 
37 2 -7.03386 -28.3198 0 
39 2 -5.90848 -28.281 0 
2 2 -26.7941 -28.0086 0 
4 2 -25.6649 -27.9736 0 
6 2 -24.5357 -27.9381 0 
8 2 -23.4065 -27.902 0 
10 2 -22.2773 -27.8656 0 
12 2 -21.1481 -27.8286 0 
14 2 -20.019 -27.7912 0 
16 2 -18.89 -27.7533 0 
18 2 -17.7611 -27.715 0 
20 2 -16.6324 -27.6763 0 
22 2 -15.5039 -27.6373 0 
24 2 -14.3755 -27.5979 0 
26 2 -13.2475 -27.5582 0 
28 2 -12.1197 -27.5183 0 
30 2 -10.9923 -27.4783 0 
32 2 -9.86522 -27.4382 0 
34 2 -8.73856 -27.3981 0 
36 2 -7.61233 -27.3581 0 
38 2 -6.48656 -27.3184 0 
40 2 -5.36126 -27.2789 0 
41 2 -4.78357 -28.2426 0 
42 2 -4.23645 -27.24 0 
43 2 -3.65912 -28.2046 0 
44 2 -3.11213 -27.2015 0 
45 2 -2.53513 -28.1673 0 
46 2 -1.98828 -27.1638 0 
47 2 -1.41159 -28.1307 0 
48 2 -0.8649 -27.1269 0 
49 2 -0.288464 -28.095 0 
51 2 0.834263 -28.0602 0 
53 2 1.95663 -28.0264 0 
55 2 3.07869 -27.9937 0 
57 2 4.20048 -27.9622 0 
59 2 5.32207 -27.9319 0 
61 2 6.4435 -27.9029 0 
63 2 7.56483 -27.8752 0 
65 2 8.68613 -27.8488 0 
67 2 9.80743 -27.8237 0 
69 2 10.9288 -27.8 0 
71 2 12.0503 -27.7775 0 
73 2 13.1719 -27.7563 0 
75 2 14.2937 -27.7363 0 
77 2 15.4157 -27.7174 0 
79 2 16.538 -27.6997 0 
81 2 17.6605 -27.683 0 
83 2 18.7832 -27.6673 0 
85 2 19.9063 -27.6526 0 
87 2 21.0296 -27.6388 0 
89 2 22.1532 -27.6258 0 
91 2 23.2771 -27.6136 0 
93 2 24.4012 -27.6022 0 
95 2 25.5256 -27.5914 0 
97 2 26.6503 -27.5812 0 
99 2 27.7752 -27.5717 0 
101 2 -27.378 -27.0533 0 
103 2 -26.2487 -27.0183 0 
102 2 -26.833 -26.0633 0 
105 2 -25.1194 -26.9828 0 
104 2 -25.7037 -26.0278 0 
107 2 -23.9901 -26.9468 0 
106 2 -24.5742 -25.9918 0 
109 2 -22.8607 -26.9102 0 
108 1 -23.4435 -25.9548 0 
111 2 -21.7314 -26.8732 0 
113 2 -20.6021 -26.8357 0 
115 2 -19.4729 -26.7977 0 
117 2 -18.3437 -26.7591 0 
119 2 -17.2147 -26.7202 0 
121 2 -16.0858 -26.6808 0 
123 2 -14.9572 -26.641 0 
125 2 -13.8287 -26.6009 0 
127 2 -12.7006 -26.5605 0 
129 2 -11.5727 -26.5198 0 
131 2 -10.4452 -26.479 0 
133 2 -9.31813 -26.4382 0 
135 2 -8.19146 -26.3973 0 
137 2 -7.06526 -26.3566 0 
139 2 -5.93954 -26.3162 0 
141 2 -4.81433 -26.2762 0 
143 2 -3.68963 -26.2366 0 
145 2 -2.56545 -26.1977 0 
147 2 -1.44177 -26.1596 0 
50 2 0.258046 -27.0909 0 
149 2 -0.318563 -26.1224 0 
52 2 1.38059 -27.056 0 
151 2 0.804196 -26.0862 0 
54 2 2.50279 -27.0222 0 
153 2 1.92656 -26.0512 0 
56 2 3.62468 -26.9896 0 
155 2 3.04857 -26.0174 0 
58 2 4.74633 -26.9582 0 
157 2 4.1703 -25.9849 0 
60 2 5.86779 -26.9282 0 
159 2 5.2918 -25.9538 0 
62 2 6.98913 -26.8996 0 
64 2 8.11041 -26.8723 0 
66 2 9.23169 -26.8465 0 
68 2 10.353 -26.822 0 
70 2 11.4745 -26.7989 0 
72 2 12.596 -26.7771 0 
74 2 13.7178 -26.7566 0 
76 2 14.8398 -26.7373 0 
78 2 15.962 -26.7192 0 
80 2 17.0845 -26.7023 0 
82 2 18.2073 -26.6863 0 
84 2 19.3304 -26.6714 0 
86 2 20.4538 -26.6575 0 
88 2 21.5774 -26.6444 0 
90 2 22.7014 -26.6321 0 
92 2 23.8256 -26.6206 0 
94 2 24.9501 -26.6098 0 
96 2 26.0749 -26.5996 0 
98 2 27.2 -26.5901 0 
100 2 28.3253 -26.5811 0 
201 2 -27.4179 -25.1085 0 
203 2 -26.2885 -25.0731 0 
205 2 -25.159 -25.0372 0 
207 2 -24.0295 -25.0007 0 
209 1 -22.8998 -24.9619 0 
110 1 -22.3145 -25.9168 0 
211 1 -21.7698 -24.9234 0 
112 1 -21.1856 -25.8799 0 
213 1 -20.6397 -24.885 0 
114 1 -20.0566 -25.8417 0 
215 1 -19.51 -24.8458 0 
116 1 -18.928 -25.8026 0 
217 1 -18.3814 -24.8068 0 
118 1 -17.7985 -25.7632 0 
120 1 -16.6682 -25.7228 0 
122 1 -15.5399 -25.6817 0 
124 1 -14.4111 -25.6424 0 
126 1 -13.282 -25.6015 0 
128 1 -12.1533 -25.5608 0 
130 1 -11.0251 -25.5195 0 
132 1 -9.89866 -25.4798 0 
134 1 -8.77209 -25.4378 0 
136 1 -7.64575 -25.3945 0 
138 1 -6.52061 -25.3522 0 
140 1 -5.39442 -25.314 0 
142 1 -4.27016 -25.271 0 
144 1 -3.14719 -25.2317 0 
146 1 -2.02368 -25.1947 0 
148 1 -0.900033 -25.1567 0 
150 1 0.223093 -25.119 0 
152 1 1.34585 -25.084 0 
154 1 2.46813 -25.0475 0 
156 1 3.58969 -25.0151 0 
158 1 4.71192 -24.9838 0 
160 1 5.83421 -24.9522 0 
161 2 6.41316 -25.9242 0 
162 1 6.95603 -24.9231 0 
163 2 7.53443 -25.896 0 
164 1 8.07755 -24.8946 0 
165 2 8.65568 -25.8693 0 
167 2 9.77697 -25.844 0 
166 1 9.19987 -24.8671 0 
169 2 10.8984 -25.8202 0 
168 1 10.3219 -24.8431 0 
171 2 12.0199 -25.7978 0 
170 1 11.4438 -24.821 0 
173 2 13.1416 -25.7768 0 
175 2 14.2636 -25.7571 0 
177 2 15.3858 -25.7386 0 
179 2 16.5083 -25.7213 0 
181 2 17.6311 -25.7052 0 
183 2 18.7543 -25.6901 0 
185 2 19.8777 -25.6759 0 
187 2 21.0014 -25.6627 0 
189 2 22.1254 -25.6504 0 
191 2 23.2498 -25.6388 0 
193 2 24.3744 -25.628 0 
195 2 25.4993 -25.6179 0 
197 2 26.6245 -25.6084 0 
199 2 27.75 -25.5994 0 
202 2 -26.8739 -24.1187 0 
204 2 -25.7444 -24.0828 0 
206 2 -24.6148 -24.0464 0 
208 1 -23.4843 -24.0085 0 
210 1 -22.354 -23.9686 0 
212 1 -21.2244 -23.9288 0 
214 1 -20.0948 -23.8896 0 
216 1 -18.9658 -23.8498 0 
219 1 -17.252 -24.767 0 
218 1 -17.8367 -23.8113 0 
221 1 -16.123 -24.7248 0 
220 1 -16.7071 -23.7699 0 
222 1 -15.5769 -23.7294 0 
223 1 -14.9935 -24.6847 0 
224 1 -14.4473 -23.6878 0 
225 1 -13.8647 -24.6437 0 
227 1 -12.7358 -24.6036 0 
229 1 -11.6065 -24.5625 0 
231 1 -10.4785 -24.5203 0 
233 1 -9.3531 -24.479 0 
235 1 -8.2275 -24.436 0 
237 1 -7.10076 -24.391 0 
239 1 -5.97396 -24.351 0 
241 1 -4.85055 -24.3093 0 
243 1 -3.72602 -24.2663 0 
245 1 -2.60154 -24.2284 0 
247 1 -1.47851 -24.1914 0 
249 1 -0.355123 -24.1517 0 
251 1 0.767856 -24.114 0 
253 1 1.88911 -24.0779 0 
255 1 3.01187 -24.043 0 
257 1 4.13425 -24.0119 0 
259 1 5.25599 -23.9806 0 
261 1 6.37887 -23.9504 0 
263 1 7.50037 -23.92 0 
265 1 8.6222 -23.8922 0 
267 1 9.74477 -23.8669 0 
269 1 10.8673 -23.8436 0 
271 1 11.9897 -23.821 0 
172 1 12.5661 -24.7994 0 
273 1 13.1128 -23.8001 0 
174 1 13.6892 -24.7783 0 
275 1 14.2365 -23.7812 0 
176 1 14.8121 -24.7605 0 
277 1 15.3591 -23.7635 0 
178 1 15.934 -24.7416 0 
279 1 16.4818 -23.7448 0 
180 1 17.0557 -24.7248 0 
281 1 17.6036 -23.7274 0 
182 1 18.1785 -24.7087 0 
283 1 18.7271 -23.7149 0 
184 1 19.3035 -24.6953 0 
285 1 19.8504 -23.7012 0 
186 1 20.4276 -24.6827 0 
287 1 20.9739 -23.6887 0 
188 1 21.5518 -24.6701 0 
289 1 22.0981 -23.676 0 
190 1 22.676 -24.6578 0 
291 1 23.2227 -23.6647 0 
192 1 23.7999 -24.6457 0 
293 1 24.3479 -23.6541 0 
194 1 24.9241 -24.6366 0 
295 2 25.4729 -23.6443 0 
196 2 26.0488 -24.6264 0 
198 2 27.1745 -24.6176 0 
200 2 28.3003 -24.6093 0 
301 2 -27.4598 -23.1644 0 
303 2 -26.3303 -23.1287 0 
305 2 -25.2007 -23.0924 0 
307 2 -24.071 -23.0555 0 
309 1 -22.9408 -23.0157 0 
311 1 -21.8106 -22.9748 0 
313 1 -20.6809 -22.9346 0 
315 1 -19.551 -22.8952 0 
317 1 -18.4203 -22.8548 0 
319 1 -17.2907 -22.8139 0 
321 1 -16.1611 -22.7738 0 
323 1 -15.0313 -22.7331 0 
226 1 -13.3186 -23.6461 0 
325 1 -13.9017 -22.6909 0 
327 1 -12.7731 -22.6487 0 
228 1 -12.1908 -23.6065 0 
329 1 -11.6464 -22.6065 0 
230 1 -11.062 -23.5632 0 
331 1 -10.5186 -22.5615 0 
232 1 -9.93466 -23.5188 0 
333 1 -9.39141 -22.5155 0 
234 1 -8.80915 -23.4758 0 
236 1 -7.68346 -23.4337 0 
238 1 -6.55624 -23.3898 0 
240 1 -5.43189 -23.3456 0 
242 1 -4.30886 -23.3045 0 
244 1 -3.18299 -23.2642 0 
246 1 -2.05912 -23.2242 0 
248 1 -0.936598 -23.1856 0 
250 1 0.187364 -23.1462 0 
252 1 1.30925 -23.1072 0 
254 1 2.43031 -23.0728 0 
256 1 3.55288 -23.0404 0 
258 1 4.67555 -23.0076 0 
260 1 5.79841 -22.9773 0 
262 1 6.91979 -22.9463 0 
264 1 8.04207 -22.9175 0 
266 1 9.16478 -22.8905 0 
268 1 10.2879 -22.8662 0 
270 1 11.4112 -22.8434 0 
272 1 12.5344 -22.8218 0 
274 1 13.6584 -22.8031 0 
276 1 14.7822 -22.7845 0 
278 1 15.905 -22.7662 0 
280 1 17.0283 -22.7474 0 
282 1 18.152 -22.7327 0 
284 1 19.2749 -22.7197 0 
286 1 20.3987 -22.7072 0 
288 1 21.5225 -22.6943 0 
290 1 22.6469 -22.6826 0 
292 1 23.772 -22.6726 0 
294 1 24.8977 -22.6619 0 
297 2 26.5987 -23.6355 0 
296 2 26.0228 -22.6533 0 
299 2 27.7248 -23.6273 0 
298 2 27.149 -22.6452 0 
300 2 28.2755 -22.6376 0 
302 2 -26.9167 -22.1747 0 
304 2 -25.7871 -22.1385 0 
306 2 -24.6574 -22.1018 0 
308 1 -23.5264 -22.0623 0 
310 1 -22.3965 -22.022 0 
312 1 -21.2659 -21.9812 0 
314 1 -20.1352 -21.9412 0 
316 1 -19.0065 -21.901 0 
318 1 -17.8773 -21.8585 0 
320 1 -16.7455 -21.818 0 
322 1 -15.6151 -21.7768 0 
324 1 -14.4859 -21.7352 0 
326 1 -13.3564 -21.693 0 
328 1 -12.2287 -21.6488 0 
330 1 -11.1016 -21.6052 0 
332 1 -9.97469 -21.5595 0 
334 1 -8.8466 -21.5139 0 
335 1 -8.26501 -22.4724 0 
336 1 -7.72033 -21.4687 0 
337 1 -7.14048 -22.4306 0 
338 1 -6.59708 -21.4244 0 
339 1 -6.01611 -22.3846 0 
340 1 -5.47214 -21.3804 0 
341 1 -4.89041 -22.3409 0 
343 1 -3.76539 -22.301 0 
345 1 -2.64184 -22.2578 0 
347 1 -1.51828 -22.2178 0 
349 1 -0.39478 -22.1791 0 
351 1 0.727451 -22.1383 0 
353 1 1.85013 -22.102 0 
355 1 2.97257 -22.068 0 
357 1 4.09393 -22.0351 0 
359 1 5.21659 -22.0039 0 
361 1 6.33948 -21.9719 0 
363 1 7.46289 -21.9423 0 
365 1 8.58629 -21.9146 0 
367 1 9.70981 -21.8894 0 
369 1 10.8339 -21.8664 0 
371 1 11.9565 -21.8442 0 
373 1 13.0792 -21.8244 0 
375 1 14.2027 -21.8055 0 
377 1 15.3272 -21.786 0 
379 1 16.4504 -21.7684 0 
381 1 17.5743 -21.7522 0 
383 1 18.6991 -21.738 0 
385 1 19.8244 -21.726 0 
387 1 20.9487 -21.7131 0 
389 1 22.0728 -21.7004 0 
391 1 23.1964 -21.6892 0 
393 1 24.3206 -21.6804 0 
395 2 25.4466 -21.6709 0 
397 2 26.573 -21.6629 0 
399 2 27.6998 -21.6554 0 
401 2 -27.5037 -21.2208 0 
403 2 -26.3741 -21.1849 0 
402 2 -26.9617 -20.2313 0 
405 2 -25.2445 -21.1483 0 
404 2 -25.8321 -20.1949 0 
407 2 -24.1147 -21.111 0 
409 1 -22.9833 -21.0689 0 
411 1 -21.8522 -21.0285 0 
413 1 -20.7212 -20.9878 0 
415 1 -19.5917 -20.9473 0 
417 1 -18.4634 -20.9058 0 
419 1 -17.3323 -20.8647 0 
421 1 -16.2013 -20.8229 0 
423 1 -15.0718 -20.7791 0 
425 1 -13.9423 -20.7371 0 
427 1 -12.8131 -20.6932 0 
429 1 -11.6839 -20.6489 0 
431 1 -10.5556 -20.6037 0 
433 1 -9.42993 -20.5583 0 
435 1 -8.30438 -20.5114 0 
437 1 -7.1784 -20.4648 0 
439 1 -6.05315 -20.4196 0 
342 1 -4.34712 -21.3374 0 
441 1 -4.92889 -20.3745 0 
344 1 -3.22423 -21.2923 0 
443 1 -3.80629 -20.3286 0 
346 1 -2.09973 -21.2518 0 
445 1 -2.68127 -20.2864 0 
348 1 -0.975126 -21.2116 0 
447 1 -1.55749 -20.2454 0 
350 1 0.147126 -21.1689 0 
352 1 1.27039 -21.131 0 
354 1 2.39303 -21.0956 0 
356 1 3.51622 -21.0616 0 
358 1 4.63843 -21.0294 0 
360 1 5.76 -20.998 0 
362 1 6.88305 -20.9676 0 
364 1 8.00672 -20.9386 0 
366 1 9.13041 -20.9125 0 
368 1 10.2539 -20.8901 0 
370 1 11.3774 -20.8666 0 
372 1 12.5015 -20.8446 0 
374 1 13.625 -20.8253 0 
376 1 14.748 -20.8067 0 
378 1 15.8722 -20.7878 0 
380 1 16.9965 -20.7725 0 
382 1 18.1211 -20.7573 0 
384 1 19.2457 -20.7439 0 
386 1 20.3704 -20.7312 0 
388 1 21.4954 -20.7192 0 
390 1 22.6204 -20.7069 0 
392 1 23.7453 -20.6969 0 
394 1 24.8696 -20.6886 0 
396 2 25.9969 -20.6804 0 
398 2 27.1238 -20.673 0 
400 2 28.251 -20.6661 0 
501 2 -27.5497 -19.2779 0 
503 2 -26.4202 -19.2417 0 
505 2 -25.2906 -19.2049 0 
406 2 -24.7023 -20.1579 0 
507 2 -24.1608 -19.1673 0 
408 1 -23.5717 -20.1177 0 
509 1 -23.0292 -19.1253 0 
410 1 -22.4394 -20.0763 0 
511 1 -21.8982 -19.0835 0 
412 1 -21.3083 -20.0352 0 
513 1 -20.7679 -19.0429 0 
414 1 -20.1781 -19.9942 0 
416 1 -19.0493 -19.9539 0 
418 1 -17.9201 -19.9123 0 
420 1 -16.79 -19.8711 0 
422 1 -15.6593 -19.8273 0 
424 1 -14.5285 -19.7825 0 
426 1 -13.3983 -19.7382 0 
428 1 -12.2693 -19.6938 0 
430 1 -11.1405 -19.6485 0 
432 1 -10.0134 -19.6004 0 
434 1 -8.88746 -19.5543 0 
436 1 -7.76178 -19.507 0 
438 1 -6.6357 -19.4597 0 
440 1 -5.51037 -19.4128 0 
442 1 -4.38661 -19.366 0 
444 1 -3.26175 -19.3223 0 
446 1 -2.13893 -19.2779 0 
448 1 -1.01705 -19.2348 0 
449 1 -0.434773 -20.2019 0 
450 1 0.1068 -19.1958 0 
451 1 0.689084 -20.1625 0 
452 1 1.22927 -19.1548 0 
453 1 1.81149 -20.124 0 
454 1 2.35249 -19.1179 0 
455 1 2.93384 -20.0896 0 
456 1 3.4756 -19.0823 0 
457 1 4.05632 -20.0558 0 
459 1 5.17919 -20.0226 0 
461 1 6.30146 -19.9923 0 
463 1 7.42365 -19.9631 0 
465 1 8.54752 -19.9367 0 
467 1 9.67231 -19.9124 0 
469 1 10.7968 -19.8897 0 
471 1 11.9223 -19.8673 0 
473 1 13.0478 -19.8447 0 
475 1 14.1711 -19.8259 0 
477 1 15.2951 -19.809 0 
479 1 16.4196 -19.7918 0 
481 1 17.5442 -19.7771 0 
483 1 18.6701 -19.7622 0 
485 1 19.7952 -19.7484 0 
487 1 20.9199 -19.7368 0 
489 1 22.0443 -19.7252 0 
491 1 23.1695 -19.7144 0 
493 1 24.2948 -19.7048 0 
495 2 25.4205 -19.6978 0 
497 2 26.5477 -19.6905 0 
499 2 27.6751 -19.6838 0 
502 2 -27.0088 -18.2886 0 
504 2 -25.8793 -18.252 0 
506 2 -24.7497 -18.2147 0 
508 1 -23.6195 -18.1752 0 
510 1 -22.4886 -18.1331 0 
512 1 -21.3577 -18.091 0 
514 1 -20.2276 -18.0492 0 
515 1 -19.6374 -19.0012 0 
516 1 -19.0957 -18.0081 0 
517 1 -18.5071 -18.9604 0 
518 1 -17.9646 -17.9661 0 
519 1 -17.3766 -18.918 0 
520 1 -16.834 -17.9225 0 
521 1 -16.2469 -18.8762 0 
523 1 -15.116 -18.8307 0 
525 1 -13.9852 -18.7855 0 
527 1 -12.856 -18.7395 0 
529 1 -11.7284 -18.6932 0 
531 1 -10.6006 -18.6445 0 
533 1 -9.47103 -18.5955 0 
535 1 -8.34364 -18.5474 0 
537 1 -7.21784 -18.5003 0 
539 1 -6.09319 -18.4528 0 
541 1 -4.9685 -18.4051 0 
543 1 -3.84352 -18.3603 0 
545 1 -2.72045 -18.3114 0 
547 1 -1.59811 -18.2661 0 
549 1 -0.47443 -18.2262 0 
551 1 0.647835 -18.1841 0 
553 1 1.77118 -18.1464 0 
555 1 2.8949 -18.1092 0 
557 1 4.01873 -18.0749 0 
458 1 4.59851 -19.0489 0 
559 1 5.14189 -18.0419 0 
460 1 5.72178 -19.0167 0 
561 1 6.26511 -18.0093 0 
462 1 6.84428 -18.9865 0 
563 1 7.38938 -17.9823 0 
464 1 7.9678 -18.9596 0 
565 1 8.51337 -17.9565 0 
466 1 9.09167 -18.9349 0 
567 1 9.63742 -17.9339 0 
468 1 10.2171 -18.912 0 
569 1 10.7622 -17.9119 0 
470 1 11.3428 -18.8899 0 
472 1 12.4675 -18.8673 0 
474 1 13.5923 -18.8462 0 
476 1 14.7168 -18.8295 0 
478 1 15.8409 -18.8121 0 
480 1 16.966 -18.7958 0 
482 1 18.0908 -18.7814 0 
484 1 19.2166 -18.767 0 
486 1 20.343 -18.754 0 
488 1 21.468 -18.7428 0 
490 1 22.5933 -18.7324 0 
492 1 23.7202 -18.7223 0 
494 1 24.846 -18.7144 0 
496 2 25.9714 -18.7078 0 
498 2 27.0991 -18.7012 0 
500 2 28.2271 -18.6951 0 
601 2 -27.5979 -17.3354 0 
603 2 -26.4686 -17.2992 0 
605 2 -25.3391 -17.2621 0 
607 2 -24.2094 -17.2244 0 
609 1 -23.0785 -17.1829 0 
611 1 -21.9472 -17.14 0 
613 1 -20.8158 -17.0972 0 
615 1 -19.6837 -17.0556 0 
617 1 -18.5529 -17.0138 0 
619 1 -17.4231 -16.9712 0 
522 1 -15.7043 -17.8788 0 
621 1 -16.2925 -16.9261 0 
524 1 -14.5736 -17.8336 0 
623 1 -15.1617 -16.8807 0 
526 1 -13.4432 -17.7873 0 
625 1 -14.0315 -16.8352 0 
528 1 -12.3145 -17.7384 0 
627 1 -12.9019 -16.7857 0 
530 1 -11.1862 -17.6891 0 
532 1 -10.0576 -17.6398 0 
534 1 -8.92939 -17.5893 0 
536 1 -7.80302 -17.5402 0 
538 1 -6.67825 -17.4922 0 
540 1 -5.55248 -17.4457 0 
542 1 -4.42647 -17.3986 0 
544 1 -3.30424 -17.3476 0 
546 1 -2.18109 -17.2999 0 
548 1 -1.05729 -17.257 0 
550 1 0.0648531 -17.2145 0 
552 1 1.18945 -17.1748 0 
554 1 2.31265 -17.1371 0 
556 1 3.43667 -17.1012 0 
558 1 4.56007 -17.0667 0 
560 1 5.68296 -17.0341 0 
562 1 6.8074 -17.0051 0 
564 1 7.93197 -16.9786 0 
566 1 9.05721 -16.9552 0 
568 1 10.1818 -16.9324 0 
571 1 11.8869 -17.8893 0 
570 1 11.3063 -16.9101 0 
573 1 13.0117 -17.8678 0 
572 1 12.4306 -16.8882 0 
575 1 14.1376 -17.8492 0 
574 1 13.5563 -16.8688 0 
577 1 15.262 -17.832 0 
576 1 14.6823 -16.8496 0 
579 1 16.3863 -17.8156 0 
578 1 15.8078 -16.8348 0 
581 1 17.5111 -17.7989 0 
580 1 16.9336 -16.819 0 
583 1 18.6366 -17.7863 0 
582 1 18.0606 -16.8048 0 
585 1 19.7624 -17.7731 0 
584 1 19.1864 -16.7916 0 
587 1 20.8902 -17.7612 0 
586 1 20.3125 -16.7807 0 
589 1 22.0167 -17.7499 0 
588 1 21.4378 -16.7684 0 
591 1 23.1423 -17.7405 0 
590 1 22.5656 -16.7588 0 
593 1 24.2679 -17.7309 0 
592 1 23.6919 -16.7488 0 
595 2 25.3948 -17.725 0 
594 1 24.8186 -16.7421 0 
596 2 25.9465 -16.7357 0 
597 2 26.5229 -17.7186 0 
598 2 27.0751 -16.7299 0 
599 2 27.6512 -17.7126 0 
600 2 28.2039 -16.7246 0 
602 2 -27.0583 -16.3463 0 
604 2 -25.929 -16.3096 0 
606 2 -24.7995 -16.2721 0 
608 1 -23.6701 -16.2325 0 
610 1 -22.539 -16.1899 0 
612 1 -21.4062 -16.1466 0 
614 1 -20.2734 -16.1047 0 
616 1 -19.1417 -16.0617 0 
618 1 -18.0111 -16.0193 0 
620 1 -16.8811 -15.9755 0 
622 1 -15.7507 -15.9287 0 
624 1 -14.6194 -15.8822 0 
626 1 -13.4895 -15.8337 0 
628 1 -12.359 -15.7839 0 
629 1 -11.7716 -16.7358 0 
630 1 -11.2294 -15.7321 0 
631 1 -10.6425 -16.6848 0 
632 1 -10.1017 -15.6775 0 
633 1 -9.51558 -16.6331 0 
634 1 -8.97445 -15.6262 0 
635 1 -8.38919 -16.5825 0 
637 1 -7.26312 -16.5319 0 
639 1 -6.13684 -16.4847 0 
641 1 -5.01147 -16.4374 0 
643 1 -3.88914 -16.3843 0 
645 1 -2.76515 -16.3361 0 
647 1 -1.64047 -16.2906 0 
649 1 -0.51733 -16.2454 0 
651 1 0.606753 -16.206 0 
653 1 1.73035 -16.1651 0 
655 1 2.85466 -16.1288 0 
657 1 3.97842 -16.0932 0 
659 1 5.10233 -16.0591 0 
661 1 6.22586 -16.0291 0 
663 1 7.34999 -16.0006 0 
665 1 8.47515 -15.9757 0 
667 1 9.59986 -15.9523 0 
669 1 10.7254 -15.9299 0 
671 1 11.8501 -15.9078 0 
673 1 12.9755 -15.8881 0 
675 1 14.1012 -15.8693 0 
677 1 15.2279 -15.8524 0 
679 1 16.3536 -15.8382 0 
681 1 17.4807 -15.8247 0 
683 1 18.6069 -15.8102 0 
685 1 19.7339 -15.7983 0 
687 1 20.8602 -15.7863 0 
689 1 21.9879 -15.7776 0 
691 1 23.1145 -15.7679 0 
693 1 24.2426 -15.7604 0 
695 2 25.3699 -15.7527 0 
697 2 26.4989 -15.7471 0 
699 2 27.6281 -15.742 0 
701 2 -27.6483 -15.3934 0 
703 2 -26.5193 -15.357 0 
705 2 -25.3901 -15.3199 0 
707 2 -24.2607 -15.282 0 
709 1 -23.1296 -15.2395 0 
711 1 -21.998 -15.1968 0 
713 1 -20.866 -15.1541 0 
715 1 -19.7344 -15.1115 0 
717 1 -18.6027 -15.0684 0 
719 1 -17.4709 -15.025 0 
721 1 -16.3401 -14.9782 0 
723 1 -15.2085 -14.9309 0 
725 1 -14.0776 -14.8819 0 
727 1 -12.9473 -14.8323 0 
729 1 -11.8177 -14.7801 0 
731 1 -10.6899 -14.7251 0 
733 1 -9.56065 -14.6714 0 
636 1 -7.84756 -15.5749 0 
735 1 -8.43308 -14.6189 0 
638 1 -6.72111 -15.5248 0 
737 1 -7.30627 -14.567 0 
640 1 -5.5954 -15.4754 0 
739 1 -6.17976 -14.515 0 
642 1 -4.473 -15.4214 0 
644 1 -3.34826 -15.3718 0 
646 1 -2.22384 -15.3244 0 
648 1 -1.10038 -15.2767 0 
650 1 0.0248615 -15.2356 0 
652 1 1.1479 -15.1933 0 
654 1 2.27171 -15.1551 0 
656 1 3.39482 -15.1186 0 
658 1 4.51922 -15.0846 0 
660 1 5.64383 -15.0521 0 
662 1 6.76778 -15.0233 0 
664 1 7.89325 -14.997 0 
666 1 9.01851 -14.9724 0 
668 1 10.1441 -14.9503 0 
670 1 11.2698 -14.9279 0 
672 1 12.3967 -14.9075 0 
674 1 13.5231 -14.8885 0 
676 1 14.6492 -14.8718 0 
678 1 15.7757 -14.8557 0 
680 1 16.9016 -14.8431 0 
682 1 18.0281 -14.8294 0 
684 1 19.1553 -14.8171 0 
686 1 20.2826 -14.8045 0 
688 1 21.4104 -14.7953 0 
690 1 22.5377 -14.7854 0 
692 1 23.6646 -14.7781 0 
694 1 24.7927 -14.7715 0 
696 2 25.9226 -14.7642 0 
698 2 27.0521 -14.7592 0 
700 2 28.1818 -14.7547 0 
702 2 -27.11 -14.4044 0 
801 2 -27.7009 -13.4516 0 
704 2 -25.9811 -14.3676 0 
803 2 -26.5724 -13.4152 0 
706 2 -24.852 -14.3301 0 
805 2 -25.4437 -13.3781 0 
708 1 -23.721 -14.2894 0 
807 2 -24.3146 -13.3401 0 
710 1 -22.5904 -14.2472 0 
809 1 -23.184 -13.2974 0 
712 1 -21.4587 -14.2042 0 
714 1 -20.3267 -14.1612 0 
716 1 -19.1952 -14.118 0 
718 1 -18.0628 -14.075 0 
720 1 -16.9309 -14.0284 0 
722 1 -15.7986 -13.9812 0 
724 1 -14.6665 -13.9322 0 
726 1 -13.536 -13.8811 0 
728 1 -12.4056 -13.8293 0 
730 1 -11.2767 -13.7731 0 
732 1 -10.1478 -13.7186 0 
734 1 -9.01922 -13.6633 0 
736 1 -7.89212 -13.609 0 
738 1 -6.7656 -13.5563 0 
740 1 -5.64005 -13.5001 0 
741 1 -5.05642 -14.4596 0 
742 1 -4.51477 -13.4483 0 
743 1 -3.93169 -14.4096 0 
744 1 -3.39102 -13.3958 0 
745 1 -2.80713 -14.3592 0 
746 1 -2.26772 -13.3437 0 
747 1 -1.6834 -14.3088 0 
749 1 -0.558039 -14.2657 0 
751 1 0.564083 -14.2218 0 
753 1 1.68749 -14.1821 0 
755 1 2.81145 -14.1422 0 
757 1 3.93521 -14.1086 0 
759 1 5.05957 -14.0765 0 
761 1 6.18503 -14.0461 0 
763 1 7.31083 -14.0191 0 
765 1 8.43626 -13.9934 0 
767 1 9.56197 -13.9711 0 
769 1 10.6874 -13.9482 0 
771 1 11.8138 -13.9282 0 
773 1 12.9416 -13.9086 0 
775 1 14.0699 -13.8905 0 
777 1 15.1972 -13.8753 0 
779 1 16.3245 -13.8605 0 
781 1 17.4515 -13.8488 0 
783 1 18.5789 -13.8357 0 
785 1 19.7061 -13.823 0 
787 1 20.8332 -13.8123 0 
789 1 21.9608 -13.8028 0 
791 1 23.0894 -13.7957 0 
793 1 24.2181 -13.7878 0 
795 2 25.3462 -13.7811 0 
797 2 26.4761 -13.7764 0 
799 2 27.6062 -13.772 0 
802 2 -27.164 -12.4626 0 
804 2 -26.0357 -12.4259 0 
806 2 -24.9071 -12.3884 0 
808 1 -23.7768 -12.3476 0 
810 1 -22.6456 -12.3063 0 
811 1 -22.0527 -13.2559 0 
812 1 -21.5144 -12.2645 0 
813 1 -20.9203 -13.2127 0 
814 1 -20.383 -12.2208 0 
815 1 -19.7882 -13.1684 0 
816 1 -19.2502 -12.1763 0 
817 1 -18.6565 -13.1254 0 
818 1 -18.1178 -12.1317 0 
819 1 -17.5233 -13.0794 0 
821 1 -16.3897 -13.0316 0 
823 1 -15.2571 -12.9834 0 
825 1 -14.1262 -12.9316 0 
827 1 -12.9949 -12.8796 0 
829 1 -11.8653 -12.8229 0 
831 1 -10.736 -12.767 0 
833 1 -9.60729 -12.7107 0 
835 1 -8.47919 -12.6525 0 
837 1 -7.35133 -12.5979 0 
839 1 -6.22462 -12.5416 0 
841 1 -5.09822 -12.4869 0 
843 1 -3.97385 -12.4316 0 
845 1 -2.84976 -12.3782 0 
748 1 -1.14191 -13.2975 0 
847 1 -1.72498 -12.3291 0 
849 1 -0.602379 -12.2792 0 
750 1 -0.0182474 -13.2502 0 
851 1 0.521728 -12.2355 0 
752 1 1.10498 -13.2092 0 
853 1 1.64423 -12.1933 0 
754 1 2.2276 -13.1685 0 
756 1 3.35211 -13.1307 0 
758 1 4.47631 -13.0988 0 
760 1 5.60177 -13.0703 0 
762 1 6.72812 -13.0423 0 
764 1 7.85463 -13.0153 0 
766 1 8.98178 -12.9916 0 
768 1 10.1082 -12.9683 0 
770 1 11.2355 -12.9472 0 
772 1 12.3623 -12.9278 0 
774 1 13.4896 -12.9101 0 
776 1 14.6171 -12.8934 0 
778 1 15.7437 -12.8789 0 
780 1 16.871 -12.8664 0 
782 1 17.9982 -12.8547 0 
784 1 19.1263 -12.8415 0 
786 1 20.255 -12.8296 0 
788 1 21.3832 -12.8203 0 
790 1 22.512 -12.8121 0 
792 1 23.6405 -12.8068 0 
794 1 24.7702 -12.7979 0 
796 2 25.9 -12.7934 0 
798 2 27.0306 -12.7893 0 
800 2 28.1612 -12.7854 0 
901 2 -27.7557 -11.5099 0 
903 2 -26.6279 -11.4735 0 
905 2 -25.4997 -11.4364 0 
907 2 -24.3713 -11.3985 0 
909 1 -23.2401 -11.3563 0 
911 1 -22.1089 -11.3146 0 
913 1 -20.9779 -11.2717 0 
915 1 -19.846 -11.2283 0 
917 1 -18.7134 -11.1838 0 
820 1 -16.9845 -12.0836 0 
919 1 -17.5806 -11.1375 0 
822 1 -15.8513 -12.0351 0 
921 1 -16.448 -11.0879 0 
824 1 -14.7196 -11.9828 0 
923 1 -15.3163 -11.0368 0 
826 1 -13.5889 -11.9306 0 
828 1 -12.4587 -11.876 0 
830 1 -11.3273 -11.8187 0 
832 1 -10.1978 -11.7603 0 
834 1 -9.06976 -11.7015 0 
836 1 -7.93975 -11.6441 0 
838 1 -6.81165 -11.5855 0 
840 1 -5.68489 -11.5277 0 
842 1 -4.56049 -11.469 0 
844 1 -3.43553 -11.4136 0 
846 1 -2.30935 -11.3611 0 
848 1 -1.18644 -11.3079 0 
850 1 -0.0621419 -11.2621 0 
852 1 1.06038 -11.2171 0 
855 1 2.76864 -12.155 0 
854 1 2.18556 -11.179 0 
857 1 3.89408 -12.1205 0 
856 1 3.31122 -11.1429 0 
859 1 5.01964 -12.0917 0 
858 1 4.43744 -11.1115 0 
861 1 6.14548 -12.0638 0 
860 1 5.56305 -11.0847 0 
863 1 7.27217 -12.0371 0 
862 1 6.69 -11.0587 0 
865 1 8.39956 -12.013 0 
864 1 7.8179 -11.0323 0 
867 1 9.52671 -11.9887 0 
869 1 10.6541 -11.9665 0 
871 1 11.7823 -11.9468 0 
873 1 12.9099 -11.9285 0 
875 1 14.0365 -11.9115 0 
877 1 15.1633 -11.8964 0 
879 1 16.2904 -11.8836 0 
881 1 17.418 -11.8715 0 
883 1 18.5466 -11.86 0 
885 1 19.6748 -11.8477 0 
887 1 20.8033 -11.8381 0 
889 1 21.9327 -11.8298 0 
891 1 23.0639 -11.8233 0 
893 1 24.1942 -11.8178 0 
895 2 25.3239 -11.8103 0 
897 2 26.4549 -11.8064 0 
899 2 27.586 -11.8028 0 
902 2 -27.2202 -10.5209 0 
904 2 -26.0925 -10.4842 0 
906 2 -24.9646 -10.4468 0 
908 1 -23.8351 -10.4072 0 
910 1 -22.7045 -10.3647 0 
912 1 -21.5747 -10.3215 0 
914 1 -20.4436 -10.2792 0 
916 1 -19.311 -10.2363 0 
918 1 -18.178 -10.1911 0 
920 1 -17.0454 -10.1423 0 
922 1 -15.9128 -10.0922 0 
924 1 -14.7797 -10.0391 0 
925 1 -14.1837 -10.9829 0 
926 1 -13.6467 -9.98349 0 
927 1 -13.0518 -10.9289 0 
928 1 -12.5145 -9.92674 0 
929 1 -11.92 -10.8722 0 
930 1 -11.383 -9.86544 0 
931 1 -10.7897 -10.8129 0 
933 1 -9.65931 -10.7524 0 
935 1 -8.52837 -10.6932 0 
937 1 -7.40058 -10.6326 0 
939 1 -6.27258 -10.5722 0 
941 1 -5.14715 -10.5105 0 
943 1 -4.02127 -10.4514 0 
945 1 -2.89561 -10.3961 0 
947 1 -1.77278 -10.3374 0 
949 1 -0.64856 -10.2897 0 
951 1 0.474637 -10.2425 0 
953 1 1.60049 -10.2028 0 
955 1 2.72637 -10.1645 0 
957 1 3.85356 -10.1333 0 
959 1 4.98073 -10.1038 0 
961 1 6.10827 -10.0783 0 
963 1 7.23559 -10.0527 0 
965 1 8.36481 -10.0282 0 
866 1 8.94506 -11.0094 0 
967 1 9.49288 -10.0046 0 
868 1 10.0715 -10.9858 0 
969 1 10.6209 -9.9849 0 
870 1 11.1991 -10.9667 0 
971 1 11.7474 -9.96535 0 
872 1 12.3269 -10.947 0 
973 1 12.8745 -9.94654 0 
874 1 13.4543 -10.9292 0 
975 1 14.0029 -9.93027 0 
876 1 14.5821 -10.9134 0 
977 1 15.1315 -9.91681 0 
878 1 15.7112 -10.9001 0 
979 1 16.2607 -9.90435 0 
880 1 16.8389 -10.8882 0 
981 1 17.3892 -9.89418 0 
882 1 17.9668 -10.8779 0 
983 1 18.5177 -9.88456 0 
884 1 19.0959 -10.8654 0 
985 1 19.6485 -9.87403 0 
886 1 20.2263 -10.8554 0 
987 1 20.7802 -9.86452 0 
888 1 21.3565 -10.8479 0 
890 1 22.488 -10.8418 0 
989 1 21.9112 -9.85973 0 
892 1 23.6187 -10.835 0 
991 1 23.0403 -9.85266 0 
894 1 24.75 -10.8287 0 
993 1 24.171 -9.84716 0 
896 2 25.8793 -10.8234 0 
995 2 25.3037 -9.84035 0 
898 2 27.0108 -10.8201 0 
997 2 26.4357 -9.83726 0 
900 2 28.1423 -10.817 0 
999 2 27.5677 -9.8344 0 
1001 2 -27.8125 -9.56805 0 
1003 2 -26.6854 -9.5318 0 
1005 2 -25.5581 -9.49477 0 
1007 2 -24.4305 -9.45693 0 
1009 1 -23.301 -9.41555 0 
1011 1 -22.1711 -9.37269 0 
1013 1 -21.0396 -9.33081 0 
1015 1 -19.9085 -9.28825 0 
1017 1 -18.7778 -9.24414 0 
1019 1 -17.6452 -9.19715 0 
1021 1 -16.5116 -9.14751 0 
1023 1 -15.3793 -9.09614 0 
1025 1 -14.2467 -9.04109 0 
1027 1 -13.1137 -8.98327 0 
1029 1 -11.9807 -8.92169 0 
932 1 -10.2524 -9.80475 0 
1031 1 -10.8474 -8.85816 0 
934 1 -9.1209 -9.74412 0 
1033 1 -9.71537 -8.79613 0 
936 1 -7.99158 -9.6793 0 
1035 1 -8.58598 -8.73008 0 
938 1 -6.86294 -9.61808 0 
940 1 -5.73553 -9.55426 0 
942 1 -4.60948 -9.49295 0 
944 1 -3.48349 -9.43325 0 
946 1 -2.36146 -9.37139 0 
948 1 -1.23617 -9.31957 0 
950 1 -0.112423 -9.26918 0 
952 1 1.01293 -9.22832 0 
954 1 2.13864 -9.18858 0 
956 1 3.26677 -9.15459 0 
958 1 4.39443 -9.1239 0 
960 1 5.52342 -9.09796 0 
962 1 6.65159 -9.07111 0 
964 1 7.78059 -9.04796 0 
966 1 8.90988 -9.02379 0 
968 1 10.0392 -9.00161 0 
970 1 11.1683 -8.98178 0 
972 1 12.2959 -8.96315 0 
974 1 13.4234 -8.94706 0 
976 1 14.5527 -8.93316 0 
978 1 15.6823 -8.92219 0 
980 1 16.8121 -8.91 0 
982 1 17.9407 -8.90026 0 
984 1 19.0704 -8.89214 0 
986 1 20.2005 -8.88308 0 
988 1 21.3321 -8.87562 0 
990 1 22.4647 -8.87092 0 
992 1 23.597 -8.86491 0 
994 1 24.7287 -8.85926 0 
996 2 25.8608 -8.85435 0 
998 2 26.9933 -8.85174 0 
1000 2 28.1257 -8.84931 0 
1002 2 -27.2783 -8.57905 0 
1101 2 -27.8711 -7.62598 0 
1004 2 -26.1516 -8.54247 0 
1103 2 -26.7449 -7.58983 0 
1006 2 -25.0246 -8.50509 0 
1105 2 -25.6186 -7.5529 0 
1008 1 -23.8954 -8.46542 0 
1107 2 -24.492 -7.51516 0 
1010 1 -22.7667 -8.42341 0 
1012 1 -21.6371 -8.38284 0 
1014 1 -20.5063 -8.34123 0 
1016 1 -19.3749 -8.29695 0 
1018 1 -18.2434 -8.25085 0 
1020 1 -17.1118 -8.2024 0 
1022 1 -15.9802 -8.15133 0 
1024 1 -14.8473 -8.09874 0 
1026 1 -13.7138 -8.0415 0 
1028 1 -12.581 -7.98042 0 
1030 1 -11.447 -7.9169 0 
1032 1 -10.313 -7.85258 0 
1034 1 -9.1808 -7.78402 0 
1036 1 -8.04876 -7.71719 0 
1037 1 -7.45534 -8.6651 0 
1038 1 -6.91812 -7.64772 0 
1039 1 -6.32668 -8.59929 0 
1041 1 -5.1991 -8.53428 0 
1043 1 -4.07287 -8.47231 0 
1045 1 -2.95104 -8.40593 0 
1047 1 -1.82616 -8.35105 0 
1049 1 -0.702045 -8.29698 0 
1051 1 0.425363 -8.25283 0 
1053 1 1.55141 -8.21207 0 
1055 1 2.67955 -8.17675 0 
1057 1 3.80791 -8.14298 0 
1059 1 4.93824 -8.11636 0 
1061 1 6.06769 -8.09016 0 
1063 1 7.19828 -8.06555 0 
1065 1 8.32761 -8.04163 0 
1067 1 9.45754 -8.01838 0 
1069 1 10.5871 -7.99843 0 
1071 1 11.716 -7.97956 0 
1073 1 12.8444 -7.96292 0 
1075 1 13.9739 -7.94893 0 
1077 1 15.1039 -7.93684 0 
1079 1 16.2329 -7.92726 0 
1081 1 17.362 -7.91562 0 
1083 1 18.4912 -7.90757 0 
1085 1 19.6225 -7.9 0 
1087 1 20.7548 -7.89364 0 
1089 1 21.8879 -7.88826 0 
1091 1 23.0198 -7.8824 0 
1093 1 24.1525 -7.877 0 
1095 2 25.2861 -7.87134 0 
1097 2 26.419 -7.86899 0 
1099 2 27.5519 -7.8668 0 
1102 2 -27.3381 -6.63684 0 
1104 2 -26.2124 -6.60035 0 
1106 2 -25.0865 -6.56307 0 
1108 1 -23.9595 -6.52447 0 
1109 1 -23.3626 -7.4739 0 
1110 1 -22.8308 -6.4822 0 
1111 1 -22.2328 -7.43221 0 
1112 1 -21.7012 -6.44159 0 
1113 1 -21.103 -7.39231 0 
1114 1 -20.5712 -6.40107 0 
1115 1 -19.9728 -7.35 0 
1116 1 -19.441 -6.3574 0 
1117 1 -18.8426 -7.30463 0 
1119 1 -17.7117 -7.25712 0 
1121 1 -16.5807 -7.20742 0 
1123 1 -15.4483 -7.15587 0 
1125 1 -14.316 -7.10055 0 
1127 1 -13.1832 -7.03961 0 
1129 1 -12.0493 -6.97682 0 
1131 1 -10.9151 -6.91226 0 
1133 1 -9.7816 -6.84307 0 
1135 1 -8.64684 -6.77317 0 
1137 1 -7.51505 -6.70159 0 
1139 1 -6.38546 -6.62763 0 
1040 1 -5.78932 -7.57838 0 
1141 1 -5.25777 -6.55468 0 
1042 1 -4.66306 -7.51123 0 
1143 1 -4.13465 -6.47778 0 
1044 1 -3.54183 -7.44064 0 
1046 1 -2.41744 -7.38216 0 
1048 1 -1.29439 -7.3243 0 
1050 1 -0.166608 -7.27764 0 
1052 1 0.960533 -7.2331 0 
1054 1 2.08886 -7.19656 0 
1056 1 3.21747 -7.1634 0 
1058 1 4.34829 -7.13468 0 
1060 1 5.4788 -7.10725 0 
1062 1 6.61125 -7.08394 0 
1064 1 7.7427 -7.05902 0 
1066 1 8.87453 -7.0371 0 
1068 1 10.0063 -7.01496 0 
1070 1 11.1363 -6.99583 0 
1072 1 12.2652 -6.97871 0 
1074 1 13.3952 -6.96484 0 
1076 1 14.5248 -6.95087 0 
1078 1 15.6548 -6.94066 0 
1080 1 16.7854 -6.93225 0 
1082 1 17.9165 -6.92291 0 
1084 1 19.0475 -6.91633 0 
1086 1 20.1782 -6.90954 0 
1088 1 21.3112 -6.90529 0 
1090 1 22.4453 -6.89987 0 
1092 1 23.5784 -6.89462 0 
1094 1 24.7114 -6.89093 0 
1096 2 25.8451 -6.88616 0 
1098 2 26.9784 -6.88422 0 
1100 2 28.1116 -6.88241 0 
1201 2 -27.9311 -5.68349 0 
1203 2 -26.806 -5.64742 0 
1205 2 -25.6808 -5.61059 0 