ITEM: TIMESTEP
1600
ITEM: NUMBER OF ATOMS
2850
ITEM: BOX BOUNDS ff ff pp
-42.092 42.092
-42.092 42.092
-0.280613 0.280613
ITEM: ATOMS id type xu yu zu 
1 2 -27.3398 -28.9988 0 
3 2 -26.2107 -28.9642 0 
5 2 -25.0816 -28.9291 0 
7 2 -23.9525 -28.8936 0 
9 2 -22.8235 -28.8577 0 
11 2 -21.6944 -28.8213 0 
13 2 -20.5655 -28.7844 0 
15 2 -19.4366 -28.7472 0 
17 2 -18.3079 -28.7095 0 
19 2 -17.1793 -28.6715 0 
21 2 -16.0508 -28.6331 0 
23 2 -14.9226 -28.5944 0 
25 2 -13.7947 -28.5554 0 
27 2 -12.667 -28.5163 0 
29 2 -11.5396 -28.477 0 
31 2 -10.4126 -28.4376 0 
33 2 -9.28592 -28.3982 0 
35 2 -8.15967 -28.3589 0 
37 2 -7.03386 -28.3198 0 
39 2 -5.90848 -28.281 0 
2 2 -26.7941 -28.0086 0 
4 2 -25.6649 -27.9736 0 
6 2 -24.5357 -27.9381 0 
8 2 -23.4065 -27.902 0 
10 2 -22.2773 -27.8656 0 
12 2 -21.1481 -27.8286 0 
14 2 -20.019 -27.7912 0 
16 2 -18.89 -27.7533 0 
18 2 -17.7611 -27.715 0 
20 2 -16.6324 -27.6763 0 
22 2 -15.5039 -27.6373 0 
24 2 -14.3755 -27.5979 0 
26 2 -13.2475 -27.5582 0 
28 2 -12.1197 -27.5183 0 
30 2 -10.9923 -27.4783 0 
32 2 -9.86522 -27.4382 0 
34 2 -8.73856 -27.3981 0 
36 2 -7.61233 -27.3581 0 
38 2 -6.48656 -27.3184 0 
40 2 -5.36126 -27.2789 0 
41 2 -4.78357 -28.2426 0 
42 2 -4.23645 -27.24 0 
43 2 -3.65912 -28.2046 0 
44 2 -3.11213 -27.2015 0 
45 2 -2.53513 -28.1673 0 
46 2 -1.98828 -27.1638 0 
47 2 -1.41159 -28.1307 0 
48 2 -0.8649 -27.1269 0 
49 2 -0.288464 -28.095 0 
51 2 0.834263 -28.0602 0 
53 2 1.95663 -28.0264 0 
55 2 3.07869 -27.9937 0 
57 2 4.20048 -27.9622 0 
59 2 5.32207 -27.9319 0 
61 2 6.4435 -27.9029 0 
63 2 7.56483 -27.8752 0 
65 2 8.68613 -27.8488 0 
67 2 9.80743 -27.8237 0 
69 2 10.9288 -27.8 0 
71 2 12.0503 -27.7775 0 
73 2 13.1719 -27.7563 0 
75 2 14.2937 -27.7363 0 
77 2 15.4157 -27.7174 0 
79 2 16.538 -27.6997 0 
81 2 17.6605 -27.683 0 
83 2 18.7832 -27.6673 0 
85 2 19.9063 -27.6526 0 
87 2 21.0296 -27.6388 0 
89 2 22.1532 -27.6258 0 
91 2 23.2771 -27.6136 0 
93 2 24.4012 -27.6022 0 
95 2 25.5256 -27.5914 0 
97 2 26.6503 -27.5812 0 
99 2 27.7752 -27.5717 0 
101 2 -27.378 -27.0533 0 
103 2 -26.2487 -27.0183 0 
102 2 -26.833 -26.0633 0 
105 2 -25.1194 -26.9828 0 
104 2 -25.7037 -26.0278 0 
107 2 -23.9901 -26.9468 0 
106 2 -24.5742 -25.9918 0 
109 2 -22.8607 -26.9102 0 
108 1 -23.4441 -25.9546 0 
111 2 -21.7314 -26.8732 0 
113 2 -20.6021 -26.8357 0 
115 2 -19.4729 -26.7977 0 
117 2 -18.3437 -26.7591 0 
119 2 -17.2147 -26.7202 0 
121 2 -16.0858 -26.6808 0 
123 2 -14.9572 -26.641 0 
125 2 -13.8287 -26.6009 0 
127 2 -12.7006 -26.5605 0 
129 2 -11.5727 -26.5198 0 
131 2 -10.4452 -26.479 0 
133 2 -9.31813 -26.4382 0 
135 2 -8.19146 -26.3973 0 
137 2 -7.06526 -26.3566 0 
139 2 -5.93954 -26.3162 0 
141 2 -4.81433 -26.2762 0 
143 2 -3.68963 -26.2366 0 
145 2 -2.56545 -26.1977 0 
147 2 -1.44177 -26.1596 0 
50 2 0.258046 -27.0909 0 
149 2 -0.318563 -26.1224 0 
52 2 1.38059 -27.056 0 
151 2 0.804196 -26.0862 0 
54 2 2.50279 -27.0222 0 
153 2 1.92656 -26.0512 0 
56 2 3.62468 -26.9896 0 
155 2 3.04857 -26.0174 0 
58 2 4.74633 -26.9582 0 
157 2 4.1703 -25.9849 0 
60 2 5.86779 -26.9282 0 
159 2 5.2918 -25.9538 0 
62 2 6.98913 -26.8996 0 
64 2 8.11041 -26.8723 0 
66 2 9.23169 -26.8465 0 
68 2 10.353 -26.822 0 
70 2 11.4745 -26.7989 0 
72 2 12.596 -26.7771 0 
74 2 13.7178 -26.7566 0 
76 2 14.8398 -26.7373 0 
78 2 15.962 -26.7192 0 
80 2 17.0845 -26.7023 0 
82 2 18.2073 -26.6863 0 
84 2 19.3304 -26.6714 0 
86 2 20.4538 -26.6575 0 
88 2 21.5774 -26.6444 0 
90 2 22.7014 -26.6321 0 
92 2 23.8256 -26.6206 0 
94 2 24.9501 -26.6098 0 
96 2 26.0749 -26.5996 0 
98 2 27.2 -26.5901 0 
100 2 28.3253 -26.5811 0 
201 2 -27.4179 -25.1085 0 
203 2 -26.2885 -25.0731 0 
205 2 -25.159 -25.0372 0 
207 2 -24.0295 -25.0007 0 
209 1 -22.8978 -24.9615 0 
110 1 -22.315 -25.9165 0 
211 1 -21.7658 -24.9234 0 
112 1 -21.1846 -25.8789 0 
213 1 -20.6355 -24.884 0 
114 1 -20.0548 -25.8401 0 
215 1 -19.5069 -24.8442 0 
116 1 -18.9268 -25.8018 0 
217 1 -18.3787 -24.8074 0 
118 1 -17.7976 -25.7633 0 
120 1 -16.6672 -25.7233 0 
122 1 -15.5381 -25.6829 0 
124 1 -14.4111 -25.643 0 
126 1 -13.2844 -25.6006 0 
128 1 -12.1568 -25.5587 0 
130 1 -11.0296 -25.518 0 
132 1 -9.90201 -25.4764 0 
134 1 -8.77618 -25.4355 0 
136 1 -7.64998 -25.3934 0 
138 1 -6.52384 -25.3538 0 
140 1 -5.39866 -25.3144 0 
142 1 -4.27344 -25.2737 0 
144 1 -3.14896 -25.233 0 
146 1 -2.02601 -25.194 0 
148 1 -0.901808 -25.1556 0 
150 1 0.22251 -25.1166 0 
152 1 1.34382 -25.0808 0 
154 1 2.46463 -25.0461 0 
156 1 3.58671 -25.0123 0 
158 1 4.7098 -24.9823 0 
160 1 5.83162 -24.9515 0 
161 2 6.41316 -25.9242 0 
162 1 6.95284 -24.9228 0 
163 2 7.53443 -25.896 0 
164 1 8.07476 -24.897 0 
165 2 8.65568 -25.8693 0 
167 2 9.77697 -25.844 0 
166 1 9.19632 -24.8709 0 
169 2 10.8984 -25.8202 0 
168 1 10.3174 -24.8452 0 
171 2 12.0199 -25.7978 0 
170 1 11.4401 -24.822 0 
173 2 13.1416 -25.7768 0 
175 2 14.2636 -25.7571 0 
177 2 15.3858 -25.7386 0 
179 2 16.5083 -25.7213 0 
181 2 17.6311 -25.7052 0 
183 2 18.7543 -25.6901 0 
185 2 19.8777 -25.6759 0 
187 2 21.0014 -25.6627 0 
189 2 22.1254 -25.6504 0 
191 2 23.2498 -25.6388 0 
193 2 24.3744 -25.628 0 
195 2 25.4993 -25.6179 0 
197 2 26.6245 -25.6084 0 
199 2 27.75 -25.5994 0 
202 2 -26.8739 -24.1187 0 
204 2 -25.7444 -24.0828 0 
206 2 -24.6148 -24.0464 0 
208 1 -23.4846 -24.0084 0 
210 1 -22.3529 -23.9698 0 
212 1 -21.2207 -23.9301 0 
214 1 -20.0894 -23.8894 0 
216 1 -18.959 -23.8505 0 
219 1 -17.2497 -24.7677 0 
218 1 -17.8314 -23.8114 0 
221 1 -16.1201 -24.7255 0 
220 1 -16.7037 -23.7695 0 
222 1 -15.5744 -23.7262 0 
223 1 -14.9913 -24.6834 0 
224 1 -14.4458 -23.6826 0 
225 1 -13.8654 -24.6415 0 
227 1 -12.7395 -24.5995 0 
229 1 -11.6108 -24.5582 0 
231 1 -10.4831 -24.5169 0 
233 1 -9.35829 -24.4744 0 
235 1 -8.23395 -24.4342 0 
237 1 -7.10675 -24.3914 0 
239 1 -5.98081 -24.3502 0 
241 1 -4.85718 -24.3099 0 
243 1 -3.73229 -24.2691 0 
245 1 -2.60816 -24.2284 0 
247 1 -1.48569 -24.1905 0 
249 1 -0.362923 -24.152 0 
251 1 0.760079 -24.1131 0 
253 1 1.88234 -24.0779 0 
255 1 3.00469 -24.0441 0 
257 1 4.12678 -24.0124 0 
259 1 5.24823 -23.9804 0 
261 1 6.37037 -23.9509 0 
263 1 7.49261 -23.9233 0 
265 1 8.61455 -23.8969 0 
267 1 9.73694 -23.8713 0 
269 1 10.8611 -23.8478 0 
271 1 11.9853 -23.8257 0 
172 1 12.5622 -24.8007 0 
273 1 13.1087 -23.8055 0 
174 1 13.6843 -24.7821 0 
275 1 14.2328 -23.7878 0 
176 1 14.8086 -24.7642 0 
277 1 15.3572 -23.7688 0 
178 1 15.933 -24.7442 0 
279 1 16.4825 -23.7502 0 
180 1 17.0561 -24.7271 0 
281 1 17.6072 -23.7345 0 
182 1 18.1804 -24.7117 0 
283 1 18.7324 -23.718 0 
184 1 19.3049 -24.6982 0 
285 1 19.8565 -23.7038 0 
186 1 20.4294 -24.683 0 
287 1 20.98 -23.6903 0 
188 1 21.5531 -24.6697 0 
289 1 22.1027 -23.677 0 
190 1 22.6751 -24.6591 0 
291 1 23.2262 -23.6674 0 
192 1 23.7995 -24.6472 0 
293 1 24.3506 -23.6571 0 
194 1 24.9252 -24.6371 0 
295 2 25.4729 -23.6443 0 
196 2 26.0488 -24.6264 0 
198 2 27.1745 -24.6176 0 
200 2 28.3003 -24.6093 0 
301 2 -27.4598 -23.1644 0 
303 2 -26.3303 -23.1287 0 
305 2 -25.2007 -23.0924 0 
307 2 -24.071 -23.0555 0 
309 1 -22.9395 -23.0162 0 
311 1 -21.8073 -22.9772 0 
313 1 -20.6763 -22.9365 0 
315 1 -19.5443 -22.896 0 
317 1 -18.4144 -22.8548 0 
319 1 -17.2868 -22.8132 0 
321 1 -16.1587 -22.7711 0 
323 1 -15.03 -22.7265 0 
226 1 -13.3193 -23.6401 0 
325 1 -13.9019 -22.6825 0 
327 1 -12.7738 -22.6405 0 
228 1 -12.1928 -23.5998 0 
329 1 -11.6472 -22.5979 0 
230 1 -11.0653 -23.5583 0 
331 1 -10.5213 -22.5541 0 
232 1 -9.93896 -23.5147 0 
333 1 -9.39573 -22.5112 0 
234 1 -8.81443 -23.4725 0 
236 1 -7.68983 -23.431 0 
238 1 -6.56299 -23.3874 0 
240 1 -5.43801 -23.3443 0 
242 1 -4.3146 -23.3039 0 
244 1 -3.19071 -23.2643 0 
246 1 -2.06737 -23.2241 0 
248 1 -0.945002 -23.1853 0 
250 1 0.177113 -23.1465 0 
252 1 1.30008 -23.1084 0 
254 1 2.42299 -23.0736 0 
256 1 3.54518 -23.0409 0 
258 1 4.66715 -23.0086 0 
260 1 5.78929 -22.9779 0 
262 1 6.91072 -22.9498 0 
264 1 8.03394 -22.9233 0 
266 1 9.15694 -22.8974 0 
268 1 10.2802 -22.8737 0 
270 1 11.4044 -22.8514 0 
272 1 12.5293 -22.8294 0 
274 1 13.6552 -22.8105 0 
276 1 14.7803 -22.7917 0 
278 1 15.9036 -22.7732 0 
280 1 17.0282 -22.7565 0 
282 1 18.1534 -22.7408 0 
284 1 19.279 -22.7247 0 
286 1 20.4034 -22.7102 0 
288 1 21.5268 -22.6968 0 
290 1 22.6506 -22.6869 0 
292 1 23.7744 -22.6765 0 
294 1 24.8982 -22.6642 0 
297 2 26.5987 -23.6355 0 
296 2 26.0228 -22.6533 0 
299 2 27.7248 -23.6273 0 
298 2 27.149 -22.6452 0 
300 2 28.2755 -22.6376 0 
302 2 -26.9167 -22.1747 0 
304 2 -25.7871 -22.1385 0 
306 2 -24.6574 -22.1018 0 
308 1 -23.5277 -22.0642 0 
310 1 -22.3948 -22.025 0 
312 1 -21.2628 -21.9831 0 
314 1 -20.1307 -21.9428 0 
316 1 -18.9993 -21.9011 0 
318 1 -17.8697 -21.8585 0 
320 1 -16.7417 -21.816 0 
322 1 -15.6138 -21.7718 0 
324 1 -14.4854 -21.7269 0 
326 1 -13.3564 -21.6834 0 
328 1 -12.2295 -21.6367 0 
330 1 -11.1039 -21.5921 0 
332 1 -9.97841 -21.5491 0 
334 1 -8.85323 -21.5069 0 
335 1 -8.27027 -22.4685 0 
336 1 -7.72757 -21.4644 0 
337 1 -7.145 -22.4249 0 
338 1 -6.60275 -21.4188 0 
339 1 -6.02125 -22.3817 0 
340 1 -5.47942 -21.3764 0 
341 1 -4.89722 -22.3392 0 
343 1 -3.7728 -22.2989 0 
345 1 -2.65092 -22.2588 0 
347 1 -1.52797 -22.2175 0 
349 1 -0.403928 -22.1769 0 
351 1 0.71927 -22.1382 0 
353 1 1.84322 -22.1001 0 
355 1 2.96669 -22.0669 0 
357 1 4.08953 -22.0347 0 
359 1 5.21203 -22.0028 0 
361 1 6.33344 -21.974 0 
363 1 7.45579 -21.9491 0 
365 1 8.57882 -21.9229 0 
367 1 9.70261 -21.8982 0 
369 1 10.8261 -21.8748 0 
371 1 11.9495 -21.8535 0 
373 1 13.0751 -21.8344 0 
375 1 14.201 -21.8155 0 
377 1 15.3257 -21.7952 0 
379 1 16.4512 -21.7784 0 
381 1 17.5768 -21.7621 0 
383 1 18.7016 -21.7472 0 
385 1 19.8258 -21.7321 0 
387 1 20.9503 -21.7182 0 
389 1 22.0756 -21.7056 0 
391 1 23.1988 -21.6952 0 
393 1 24.3221 -21.6836 0 
395 2 25.4466 -21.6709 0 
397 2 26.573 -21.6629 0 
399 2 27.6998 -21.6554 0 
401 2 -27.5037 -21.2208 0 
403 2 -26.3741 -21.1849 0 
402 2 -26.9617 -20.2313 0 
405 2 -25.2445 -21.1483 0 
404 2 -25.8321 -20.1949 0 
407 2 -24.1147 -21.111 0 
409 1 -22.9845 -21.0736 0 
411 1 -21.8519 -21.0323 0 
413 1 -20.7177 -20.9911 0 
415 1 -19.5862 -20.949 0 
417 1 -18.4567 -20.9063 0 
419 1 -17.3287 -20.8627 0 
421 1 -16.1996 -20.8181 0 
423 1 -15.0695 -20.7715 0 
425 1 -13.9406 -20.7266 0 
427 1 -12.8145 -20.6797 0 
429 1 -11.688 -20.6325 0 
431 1 -10.5629 -20.5876 0 
433 1 -9.43756 -20.5456 0 
435 1 -8.31127 -20.5028 0 
437 1 -7.18672 -20.4588 0 
439 1 -6.06102 -20.4137 0 
342 1 -4.3551 -21.3357 0 
441 1 -4.93682 -20.3713 0 
344 1 -3.23183 -21.2917 0 
443 1 -3.81468 -20.3273 0 
346 1 -2.11009 -21.2492 0 
445 1 -2.69165 -20.2829 0 
348 1 -0.98681 -21.2087 0 
447 1 -1.5664 -20.2418 0 
350 1 0.136731 -21.168 0 
352 1 1.26094 -21.1302 0 
354 1 2.38555 -21.0944 0 
356 1 3.50871 -21.0615 0 
358 1 4.6315 -21.0285 0 
360 1 5.75428 -20.9985 0 
362 1 6.87801 -20.9731 0 
364 1 8.00166 -20.9469 0 
366 1 9.1258 -20.9218 0 
368 1 10.2495 -20.8982 0 
370 1 11.3739 -20.8766 0 
372 1 12.4983 -20.8568 0 
374 1 13.6238 -20.838 0 
376 1 14.7488 -20.8183 0 
378 1 15.8738 -20.8009 0 
380 1 16.9992 -20.7843 0 
382 1 18.1248 -20.7688 0 
384 1 19.2492 -20.7532 0 
386 1 20.3736 -20.7398 0 
388 1 21.4987 -20.7274 0 
390 1 22.6232 -20.7135 0 
392 1 23.7468 -20.7016 0 
394 1 24.8707 -20.6897 0 
396 2 25.9969 -20.6804 0 
398 2 27.1238 -20.673 0 
400 2 28.251 -20.6661 0 
501 2 -27.5497 -19.2779 0 
503 2 -26.4202 -19.2417 0 
505 2 -25.2906 -19.2049 0 
406 2 -24.7023 -20.1579 0 
507 2 -24.1608 -19.1673 0 
408 1 -23.5702 -20.1196 0 
509 1 -23.0267 -19.1289 0 
410 1 -22.4391 -20.0812 0 
511 1 -21.8949 -19.09 0 
412 1 -21.3064 -20.0417 0 
513 1 -20.7649 -19.048 0 
414 1 -20.1755 -19.9986 0 
416 1 -19.0453 -19.9553 0 
418 1 -17.916 -19.91 0 
420 1 -16.7877 -19.8642 0 
422 1 -15.6587 -19.8176 0 
424 1 -14.5286 -19.7706 0 
426 1 -13.4008 -19.7228 0 
428 1 -12.274 -19.6767 0 
430 1 -11.1478 -19.63 0 
432 1 -10.0228 -19.5846 0 
434 1 -8.89701 -19.5417 0 
436 1 -7.77047 -19.4976 0 
438 1 -6.64514 -19.4532 0 
440 1 -5.52041 -19.407 0 
442 1 -4.3964 -19.3622 0 
444 1 -3.27241 -19.3196 0 
446 1 -2.14649 -19.2782 0 
448 1 -1.02185 -19.2355 0 
449 1 -0.442826 -20.2007 0 
450 1 0.102524 -19.1953 0 
451 1 0.680384 -20.1629 0 
452 1 1.22685 -19.1567 0 
453 1 1.80445 -20.1254 0 
454 1 2.35025 -19.1179 0 
455 1 2.92766 -20.0898 0 
456 1 3.4732 -19.0831 0 
457 1 4.05037 -20.0563 0 
459 1 5.17392 -20.0255 0 
461 1 6.2987 -19.9978 0 
463 1 7.42307 -19.9709 0 
465 1 8.54772 -19.9455 0 
467 1 9.67191 -19.9201 0 
469 1 10.7967 -19.8997 0 
471 1 11.9213 -19.8788 0 
473 1 13.047 -19.8601 0 
475 1 14.1719 -19.8412 0 
477 1 15.2971 -19.8219 0 
479 1 16.4211 -19.8062 0 
481 1 17.5455 -19.7909 0 
483 1 18.6708 -19.7744 0 
485 1 19.7963 -19.7598 0 
487 1 20.9211 -19.7477 0 
489 1 22.045 -19.735 0 
491 1 23.1696 -19.7211 0 
493 1 24.2945 -19.7079 0 
495 2 25.4205 -19.6978 0 
497 2 26.5477 -19.6905 0 
499 2 27.6751 -19.6838 0 
502 2 -27.0088 -18.2886 0 
504 2 -25.8793 -18.252 0 
506 2 -24.7497 -18.2147 0 
508 1 -23.6169 -18.1774 0 
510 1 -22.485 -18.1375 0 
512 1 -21.3543 -18.0958 0 
514 1 -20.2232 -18.0527 0 
515 1 -19.634 -19.0044 0 
516 1 -19.0915 -18.007 0 
517 1 -18.5034 -18.9587 0 
518 1 -17.962 -17.9588 0 
519 1 -17.3743 -18.9107 0 
520 1 -16.8321 -17.9115 0 
521 1 -16.2456 -18.8635 0 
523 1 -15.1166 -18.817 0 
525 1 -13.9884 -18.7685 0 
527 1 -12.8602 -18.7203 0 
529 1 -11.7325 -18.6734 0 
531 1 -10.6066 -18.626 0 
533 1 -9.47986 -18.5824 0 
535 1 -8.35233 -18.5378 0 
537 1 -7.22619 -18.4923 0 
539 1 -6.10187 -18.4451 0 
541 1 -4.97684 -18.3996 0 
543 1 -3.85046 -18.3559 0 
545 1 -2.72584 -18.3132 0 
547 1 -1.60217 -18.2687 0 
549 1 -0.478323 -18.2261 0 
551 1 0.645075 -18.1856 0 
553 1 1.76812 -18.145 0 
555 1 2.892 -18.1087 0 
557 1 4.01578 -18.0759 0 
458 1 4.59708 -19.0511 0 
559 1 5.13963 -18.046 0 
460 1 5.72114 -19.0228 0 
561 1 6.26453 -18.0198 0 
462 1 6.84591 -18.9954 0 
563 1 7.39039 -17.9942 0 
464 1 7.97036 -18.9699 0 
565 1 8.51534 -17.9685 0 
466 1 9.09387 -18.9436 0 
567 1 9.64109 -17.9439 0 
468 1 10.2195 -18.9214 0 
569 1 10.7665 -17.922 0 
470 1 11.3451 -18.9 0 
472 1 12.4711 -18.8816 0 
474 1 13.5962 -18.8622 0 
476 1 14.7205 -18.8448 0 
478 1 15.8456 -18.8255 0 
480 1 16.9692 -18.8108 0 
482 1 18.0934 -18.796 0 
484 1 19.2189 -18.7801 0 
486 1 20.3443 -18.767 0 
488 1 21.4686 -18.7542 0 
490 1 22.593 -18.7418 0 
492 1 23.7189 -18.7283 0 
494 1 24.8453 -18.7167 0 
496 2 25.9714 -18.7078 0 
498 2 27.0991 -18.7012 0 
500 2 28.2271 -18.6951 0 
601 2 -27.5979 -17.3354 0 
603 2 -26.4686 -17.2992 0 
605 2 -25.3391 -17.2621 0 
607 2 -24.2094 -17.2244 0 
609 1 -23.0774 -17.1853 0 
611 1 -21.9456 -17.1447 0 
613 1 -20.8135 -17.1008 0 
615 1 -19.6814 -17.0562 0 
617 1 -18.5512 -17.0076 0 
619 1 -17.4209 -16.9614 0 
522 1 -15.7021 -17.8646 0 
621 1 -16.2903 -16.9137 0 
524 1 -14.5745 -17.8164 0 
623 1 -15.1611 -16.8641 0 
526 1 -13.4475 -17.7658 0 
625 1 -14.0343 -16.8141 0 
528 1 -12.3195 -17.7169 0 
627 1 -12.9053 -16.7625 0 
530 1 -11.1908 -17.6688 0 
532 1 -10.0617 -17.6229 0 
534 1 -8.93447 -17.5785 0 
536 1 -7.80791 -17.533 0 
538 1 -6.68191 -17.4853 0 
540 1 -5.55521 -17.4384 0 
542 1 -4.42939 -17.3944 0 
544 1 -3.30607 -17.3472 0 
546 1 -2.18307 -17.3012 0 
548 1 -1.05996 -17.2581 0 
550 1 0.0631197 -17.2148 0 
552 1 1.18531 -17.1737 0 
554 1 2.30946 -17.1373 0 
556 1 3.43382 -17.103 0 
558 1 4.55843 -17.0717 0 
560 1 5.68292 -17.0444 0 
562 1 6.80826 -17.0178 0 
564 1 7.93397 -16.9918 0 
566 1 9.05961 -16.9668 0 
568 1 10.1864 -16.9442 0 
571 1 11.8919 -17.9021 0 
570 1 11.3117 -16.9236 0 
573 1 13.017 -17.8833 0 
572 1 12.4372 -16.9052 0 
575 1 14.1421 -17.8657 0 
574 1 13.5623 -16.8864 0 
577 1 15.2669 -17.8484 0 
576 1 14.6875 -16.8693 0 
579 1 16.3923 -17.8298 0 
578 1 15.813 -16.8522 0 
581 1 17.5162 -17.8147 0 
580 1 16.9389 -16.8345 0 
583 1 18.641 -17.8008 0 
582 1 18.0635 -16.8195 0 
585 1 19.767 -17.7865 0 
584 1 19.1888 -16.8061 0 
587 1 20.8917 -17.7725 0 
586 1 20.3149 -16.7912 0 
589 1 22.0163 -17.7611 0 
588 1 21.4412 -16.779 0 
591 1 23.1422 -17.7492 0 
590 1 22.5664 -16.7684 0 
593 1 24.2694 -17.7369 0 
592 1 23.6921 -16.7573 0 
595 2 25.3948 -17.725 0 
594 1 24.8186 -16.7442 0 
596 2 25.9465 -16.7357 0 
597 2 26.5229 -17.7186 0 
598 2 27.0751 -16.7299 0 
599 2 27.6512 -17.7126 0 
600 2 28.2039 -16.7246 0 
602 2 -27.0583 -16.3463 0 
604 2 -25.929 -16.3096 0 
606 2 -24.7995 -16.2721 0 
608 1 -23.6688 -16.2333 0 
610 1 -22.5375 -16.1934 0 
612 1 -21.4064 -16.1512 0 
614 1 -20.2739 -16.1073 0 
616 1 -19.1415 -16.0589 0 
618 1 -18.0105 -16.011 0 
620 1 -16.881 -15.9633 0 
622 1 -15.7514 -15.9131 0 
624 1 -14.6211 -15.8614 0 
626 1 -13.493 -15.8098 0 
628 1 -12.3646 -15.7583 0 
629 1 -11.7764 -16.7122 0 
630 1 -11.2355 -15.7095 0 
631 1 -10.6484 -16.6649 0 
632 1 -10.1076 -15.6622 0 
633 1 -9.52089 -16.6197 0 
634 1 -8.9813 -15.6144 0 
635 1 -8.39382 -16.5727 0 
637 1 -7.26699 -16.526 0 
639 1 -6.13881 -16.4795 0 
641 1 -5.01217 -16.4317 0 
643 1 -3.88987 -16.3821 0 
645 1 -2.76671 -16.3367 0 
647 1 -1.64243 -16.2928 0 
649 1 -0.520292 -16.2488 0 
651 1 0.602642 -16.2058 0 
653 1 1.72664 -16.1694 0 
655 1 2.85114 -16.1328 0 
657 1 3.97715 -16.0992 0 
659 1 5.10341 -16.0699 0 
661 1 6.22826 -16.0421 0 
663 1 7.35321 -16.0153 0 
665 1 8.47795 -15.9899 0 
667 1 9.60499 -15.9668 0 
669 1 10.7322 -15.9445 0 
671 1 11.8585 -15.9266 0 
673 1 12.9839 -15.9086 0 
675 1 14.1097 -15.8907 0 
677 1 15.235 -15.8733 0 
679 1 16.3612 -15.8563 0 
681 1 17.4877 -15.839 0 
683 1 18.6126 -15.825 0 
685 1 19.7369 -15.8104 0 
687 1 20.8635 -15.7976 0 
689 1 21.9905 -15.7872 0 
691 1 23.116 -15.775 0 
693 1 24.242 -15.7648 0 
695 2 25.3699 -15.7527 0 
697 2 26.4989 -15.7471 0 
699 2 27.6281 -15.742 0 
701 2 -27.6483 -15.3934 0 
703 2 -26.5193 -15.357 0 
705 2 -25.3901 -15.3199 0 
707 2 -24.2607 -15.282 0 
709 1 -23.1287 -15.2416 0 
711 1 -21.9977 -15.2005 0 
713 1 -20.8666 -15.1581 0 
715 1 -19.7352 -15.1129 0 
717 1 -18.6023 -15.0628 0 
719 1 -17.4713 -15.0135 0 
721 1 -16.3411 -14.9625 0 
723 1 -15.2115 -14.9111 0 
725 1 -14.082 -14.8566 0 
727 1 -12.9526 -14.8052 0 
729 1 -11.8235 -14.7559 0 
731 1 -10.6952 -14.7074 0 
733 1 -9.56612 -14.6578 0 
636 1 -7.85267 -15.566 0 
735 1 -8.43672 -14.6076 0 
638 1 -6.72431 -15.5177 0 
737 1 -7.30892 -14.5568 0 
640 1 -5.59835 -15.4692 0 
739 1 -6.18301 -14.5075 0 
642 1 -4.47528 -15.4185 0 
644 1 -3.35057 -15.3735 0 
646 1 -2.22558 -15.3277 0 
648 1 -1.10369 -15.2813 0 
650 1 0.0197838 -15.2391 0 
652 1 1.14402 -15.1991 0 
654 1 2.26646 -15.1611 0 
656 1 3.39243 -15.1271 0 
658 1 4.52016 -15.0959 0 
660 1 5.64622 -15.066 0 
662 1 6.77169 -15.0402 0 
664 1 7.89691 -15.014 0 
666 1 9.02228 -14.99 0 
668 1 10.149 -14.9668 0 
670 1 11.2769 -14.9474 0 
672 1 12.4031 -14.9298 0 
674 1 13.5293 -14.9135 0 
676 1 14.6556 -14.8942 0 
678 1 15.7822 -14.8778 0 
680 1 16.9086 -14.8604 0 
682 1 18.0361 -14.8436 0 
684 1 19.1617 -14.8302 0 
686 1 20.288 -14.8172 0 
688 1 21.4151 -14.8057 0 
690 1 22.5405 -14.7942 0 
692 1 23.6663 -14.7834 0 
694 1 24.7928 -14.7725 0 
696 2 25.9226 -14.7642 0 
698 2 27.0521 -14.7592 0 
700 2 28.1818 -14.7547 0 
702 2 -27.11 -14.4044 0 
801 2 -27.7009 -13.4516 0 
704 2 -25.9811 -14.3676 0 
803 2 -26.5724 -13.4152 0 
706 2 -24.852 -14.3301 0 
805 2 -25.4437 -13.3781 0 
708 1 -23.7213 -14.2905 0 
807 2 -24.3146 -13.3401 0 
710 1 -22.59 -14.2493 0 
809 1 -23.1844 -13.2991 0 
712 1 -21.4587 -14.2073 0 
714 1 -20.3288 -14.1627 0 
716 1 -19.1985 -14.1171 0 
718 1 -18.0654 -14.0664 0 
720 1 -16.9339 -14.0145 0 
722 1 -15.8034 -13.9615 0 
724 1 -14.6744 -13.9078 0 
726 1 -13.5446 -13.8542 0 
728 1 -12.414 -13.8028 0 
730 1 -11.2839 -13.7523 0 
732 1 -10.1535 -13.7021 0 
734 1 -9.0237 -13.6509 0 
736 1 -7.89607 -13.599 0 
738 1 -6.76886 -13.5476 0 
740 1 -5.64232 -13.4973 0 
741 1 -5.05808 -14.4569 0 
742 1 -4.51588 -13.4477 0 
743 1 -3.93171 -14.4096 0 
744 1 -3.39215 -13.3959 0 
745 1 -2.8075 -14.3623 0 
746 1 -2.2695 -13.3442 0 
747 1 -1.68483 -14.3114 0 
749 1 -0.560539 -14.2689 0 
751 1 0.563623 -14.2259 0 
753 1 1.68689 -14.1871 0 
755 1 2.81214 -14.1534 0 
757 1 3.93666 -14.1216 0 
759 1 5.06201 -14.0916 0 
761 1 6.18924 -14.0629 0 
763 1 7.31492 -14.0368 0 
765 1 8.44031 -14.0127 0 
767 1 9.56674 -13.9902 0 
769 1 10.6942 -13.9702 0 
771 1 11.8204 -13.9504 0 
773 1 12.9476 -13.9343 0 
775 1 14.074 -13.9166 0 
777 1 15.202 -13.8991 0 
779 1 16.3284 -13.8815 0 
781 1 17.4543 -13.8654 0 
783 1 18.5813 -13.8495 0 
785 1 19.7096 -13.8382 0 
787 1 20.8395 -13.8267 0 
789 1 21.9671 -13.8129 0 
791 1 23.0915 -13.802 0 
793 1 24.2186 -13.7927 0 
795 2 25.3462 -13.7811 0 
797 2 26.4761 -13.7764 0 
799 2 27.6062 -13.772 0 
802 2 -27.164 -12.4626 0 
804 2 -26.0357 -12.4259 0 
806 2 -24.9071 -12.3884 0 
808 1 -23.7764 -12.348 0 
810 1 -22.6468 -12.308 0 
811 1 -22.0529 -13.257 0 
812 1 -21.5163 -12.2638 0 
813 1 -20.922 -13.2122 0 
814 1 -20.3856 -12.2178 0 
815 1 -19.7909 -13.167 0 
816 1 -19.2543 -12.1724 0 
817 1 -18.6602 -13.1204 0 
818 1 -18.1234 -12.1228 0 
819 1 -17.5293 -13.0681 0 
821 1 -16.3988 -13.0147 0 
823 1 -15.2689 -12.9602 0 
825 1 -14.1388 -12.9059 0 
827 1 -13.0071 -12.8523 0 
829 1 -11.8752 -12.7984 0 
831 1 -10.7439 -12.7471 0 
833 1 -9.61376 -12.6955 0 
835 1 -8.48601 -12.6428 0 
837 1 -7.35828 -12.5908 0 
839 1 -6.23021 -12.5376 0 
841 1 -5.1029 -12.4845 0 
843 1 -3.97923 -12.4306 0 
845 1 -2.8551 -12.3792 0 
748 1 -1.14476 -13.3 0 
847 1 -1.72942 -12.3321 0 
849 1 -0.607652 -12.2852 0 
750 1 -0.0214235 -13.255 0 
851 1 0.516303 -12.2433 0 
752 1 1.1029 -13.2145 0 
853 1 1.64155 -12.2072 0 
754 1 2.22777 -13.1817 0 
756 1 3.35228 -13.1471 0 
758 1 4.47756 -13.1169 0 
760 1 5.60277 -13.0879 0 
762 1 6.72922 -13.0591 0 
764 1 7.85671 -13.0344 0 
766 1 8.98419 -13.0121 0 
768 1 10.1121 -12.9919 0 
770 1 11.2393 -12.9717 0 
772 1 12.3662 -12.955 0 
774 1 13.4917 -12.9372 0 
776 1 14.6198 -12.9215 0 
778 1 15.7488 -12.9037 0 
780 1 16.8776 -12.8862 0 
782 1 18.0049 -12.8706 0 
784 1 19.1328 -12.8583 0 
786 1 20.2605 -12.8478 0 
788 1 21.3886 -12.8345 0 
790 1 22.5166 -12.8208 0 
792 1 23.6431 -12.8112 0 
794 1 24.7715 -12.8015 0 
796 2 25.9 -12.7934 0 
798 2 27.0306 -12.7893 0 
800 2 28.1612 -12.7854 0 
901 2 -27.7557 -11.5099 0 
903 2 -26.6279 -11.4735 0 
905 2 -25.4997 -11.4364 0 
907 2 -24.3713 -11.3985 0 
909 1 -23.2406 -11.3574 0 
911 1 -22.1113 -11.3162 0 
913 1 -20.981 -11.2703 0 
915 1 -19.8492 -11.2242 0 
917 1 -18.7179 -11.1772 0 
820 1 -16.9928 -12.0689 0 
919 1 -17.5873 -11.124 0 
822 1 -15.8626 -12.0138 0 
921 1 -16.4571 -11.0684 0 
824 1 -14.7322 -11.958 0 
923 1 -15.326 -11.0117 0 
826 1 -13.601 -11.904 0 
828 1 -12.4686 -11.8488 0 
830 1 -11.3366 -11.7952 0 
832 1 -10.2056 -11.7435 0 
834 1 -9.07621 -11.6895 0 
836 1 -7.94705 -11.6352 0 
838 1 -6.81834 -11.5788 0 
840 1 -5.69104 -11.5235 0 
842 1 -4.56574 -11.4666 0 
844 1 -3.44155 -11.4146 0 
846 1 -2.3174 -11.3665 0 
848 1 -1.19419 -11.3139 0 
850 1 -0.0680539 -11.2714 0 
852 1 1.0585 -11.2321 0 
855 1 2.76575 -12.172 0 
854 1 2.18204 -11.194 0 
857 1 3.89239 -12.1413 0 
856 1 3.3086 -11.1638 0 
859 1 5.01865 -12.1117 0 
858 1 4.43528 -11.1337 0 
861 1 6.14405 -12.0826 0 
860 1 5.56189 -11.106 0 
863 1 7.27085 -12.0581 0 
862 1 6.69069 -11.0801 0 
865 1 8.39898 -12.0341 0 
864 1 7.81823 -11.0567 0 
867 1 9.52791 -12.0121 0 
869 1 10.6565 -11.9931 0 
871 1 11.7855 -11.9751 0 
873 1 12.913 -11.9574 0 
875 1 14.0406 -11.9419 0 
877 1 15.1685 -11.9255 0 
879 1 16.298 -11.9087 0 
881 1 17.4288 -11.8924 0 
883 1 18.5577 -11.8787 0 
885 1 19.6856 -11.8672 0 
887 1 20.8124 -11.8558 0 
889 1 21.9406 -11.8426 0 
891 1 23.0698 -11.8307 0 
893 1 24.197 -11.8207 0 
895 2 25.3239 -11.8103 0 
897 2 26.4549 -11.8064 0 
899 2 27.586 -11.8028 0 
902 2 -27.2202 -10.5209 0 
904 2 -26.0925 -10.4842 0 
906 2 -24.9646 -10.4468 0 
908 1 -23.8358 -10.4079 0 
910 1 -22.706 -10.3665 0 
912 1 -21.5767 -10.3229 0 
914 1 -20.4458 -10.2766 0 
916 1 -19.3146 -10.2304 0 
918 1 -18.1833 -10.1799 0 
920 1 -17.0511 -10.1232 0 
922 1 -15.9213 -10.0665 0 
924 1 -14.7903 -10.011 0 
925 1 -14.1944 -10.9566 0 
926 1 -13.6581 -9.95724 0 
927 1 -13.0625 -10.9021 0 
928 1 -12.5252 -9.90091 0 
929 1 -11.9304 -10.8468 0 
930 1 -11.3932 -9.84513 0 
931 1 -10.7987 -10.7936 0 
933 1 -9.66844 -10.7386 0 
935 1 -8.53817 -10.6826 0 
937 1 -7.40955 -10.6244 0 
939 1 -6.28125 -10.5652 0 
941 1 -5.15478 -10.508 0 
943 1 -4.02891 -10.4522 0 
945 1 -2.9048 -10.4006 0 
947 1 -1.7821 -10.3456 0 
949 1 -0.655363 -10.301 0 
951 1 0.47042 -10.2596 0 
953 1 1.59451 -10.2185 0 
955 1 2.72293 -10.1865 0 
957 1 3.84983 -10.1557 0 
959 1 4.9787 -10.1286 0 
961 1 6.10742 -10.1029 0 
963 1 7.23718 -10.0783 0 
965 1 8.36562 -10.0548 0 
866 1 8.94598 -11.0345 0 
967 1 9.49444 -10.0356 0 
868 1 10.0749 -11.0139 0 
969 1 10.623 -10.0171 0 
870 1 11.2031 -10.9966 0 
971 1 11.7524 -10.0004 0 
872 1 12.3321 -10.9784 0 
973 1 12.8822 -9.98243 0 
874 1 13.4606 -10.9621 0 
975 1 14.0107 -9.96642 0 
876 1 14.5894 -10.9454 0 
977 1 15.1399 -9.95086 0 
878 1 15.7183 -10.9303 0 
979 1 16.2691 -9.9365 0 
880 1 16.8481 -10.9146 0 
981 1 17.4004 -9.92105 0 
882 1 17.9785 -10.8998 0 
983 1 18.5308 -9.90746 0 
884 1 19.1076 -10.8875 0 
985 1 19.6603 -9.89558 0 
886 1 20.2369 -10.8761 0 
987 1 20.7887 -9.88503 0 
888 1 21.3651 -10.8646 0 
890 1 22.4956 -10.8533 0 
989 1 21.917 -9.87527 0 
892 1 23.6238 -10.8405 0 
991 1 23.0463 -9.86286 0 
894 1 24.7508 -10.8301 0 
993 1 24.1752 -9.8499 0 
896 2 25.8793 -10.8234 0 
995 2 25.3037 -9.84035 0 
898 2 27.0108 -10.8201 0 
997 2 26.4357 -9.83726 0 
900 2 28.1423 -10.817 0 
999 2 27.5677 -9.8344 0 
1001 2 -27.8125 -9.56805 0 
1003 2 -26.6854 -9.5318 0 
1005 2 -25.5581 -9.49477 0 
1007 2 -24.4305 -9.45693 0 
1009 1 -23.3017 -9.41656 0 
1011 1 -22.1729 -9.37395 0 
1013 1 -21.0426 -9.32929 0 
1015 1 -19.9115 -9.28291 0 
1017 1 -18.7806 -9.2344 0 
1019 1 -17.6503 -9.18008 0 
1021 1 -16.519 -9.12194 0 
1023 1 -15.3874 -9.06661 0 
1025 1 -14.2553 -9.01148 0 
1027 1 -13.1231 -8.95679 0 
1029 1 -11.9892 -8.89894 0 
932 1 -10.2618 -9.78808 0 
1031 1 -10.8563 -8.84065 0 
934 1 -9.13175 -9.73164 0 
1033 1 -9.72455 -8.7812 0 
936 1 -8.0025 -9.67193 0 
1035 1 -8.59595 -8.72152 0 
938 1 -6.87426 -9.61157 0 
940 1 -5.74665 -9.55145 0 
942 1 -4.62012 -9.49291 0 
944 1 -3.49494 -9.43483 0 
946 1 -2.37186 -9.37784 0 
948 1 -1.24269 -9.33107 0 
950 1 -0.116571 -9.28758 0 
952 1 1.00788 -9.24549 0 
954 1 2.13456 -9.21088 0 
956 1 3.26185 -9.17689 0 
958 1 4.39264 -9.15194 0 
960 1 5.52147 -9.12462 0 
962 1 6.65106 -9.09998 0 
964 1 7.78012 -9.07588 0 
966 1 8.91079 -9.05619 0 
968 1 10.0412 -9.03615 0 
970 1 11.1715 -9.021 0 
972 1 12.3008 -9.00336 0 
974 1 13.4314 -8.98804 0 
976 1 14.5618 -8.97221 0 
978 1 15.6926 -8.95792 0 
980 1 16.8216 -8.9434 0 
982 1 17.9526 -8.9283 0 
984 1 19.0839 -8.91601 0 
986 1 20.2143 -8.90418 0 
988 1 21.3427 -8.89328 0 
990 1 22.4708 -8.88423 0 
992 1 23.6 -8.87159 0 
994 1 24.7304 -8.86044 0 
996 2 25.8608 -8.85435 0 
998 2 26.9933 -8.85174 0 
1000 2 28.1257 -8.84931 0 
1002 2 -27.2783 -8.57905 0 
1101 2 -27.8711 -7.62598 0 
1004 2 -26.1516 -8.54247 0 
1103 2 -26.7449 -7.58983 0 
1006 2 -25.0246 -8.50509 0 
1105 2 -25.6186 -7.5529 0 
1008 1 -23.8979 -8.46659 0 
1107 2 -24.492 -7.51516 0 
1010 1 -22.7695 -8.4244 0 
1012 1 -21.6396 -8.38185 0 
1014 1 -20.509 -8.33591 0 
1016 1 -19.3795 -8.28801 0 
1018 1 -18.2507 -8.2358 0 
1020 1 -17.1205 -8.18059 0 
1022 1 -15.9881 -8.12421 0 
1024 1 -14.8554 -8.06774 0 
1026 1 -13.7216 -8.0115 0 
1028 1 -12.5871 -7.95474 0 
1030 1 -11.4526 -7.89591 0 
1032 1 -10.3204 -7.83506 0 
1034 1 -9.18997 -7.77206 0 
1036 1 -8.05992 -7.70908 0 
1037 1 -7.46753 -8.65945 0 
1038 1 -6.9297 -7.64316 0 
1039 1 -6.33906 -8.59671 0 
1041 1 -5.21106 -8.53437 0 
1043 1 -4.08534 -8.47066 0 
1045 1 -2.9623 -8.41089 0 
1047 1 -1.8332 -8.36469 0 
1049 1 -0.706561 -8.31467 0 
1051 1 0.419956 -8.27162 0 
1053 1 1.54662 -8.23617 0 
1055 1 2.67337 -8.20159 0 
1057 1 3.8051 -8.17325 0 
1059 1 4.93474 -8.14485 0 
1061 1 6.06706 -8.12128 0 
1063 1 7.19782 -8.09715 0 
1065 1 8.32853 -8.07573 0 
1067 1 9.45887 -8.05652 0 
1069 1 10.5908 -8.0414 0 
1071 1 11.7213 -8.02398 0 
1073 1 12.8533 -8.00837 0 
1075 1 13.9833 -7.99303 0 
1077 1 15.1147 -7.98002 0 
1079 1 16.2452 -7.9649 0 
1081 1 17.3768 -7.95193 0 
1083 1 18.5088 -7.93816 0 
1085 1 19.6397 -7.92439 0 
1087 1 20.7695 -7.91207 0 
1089 1 21.8992 -7.90194 0 
1091 1 23.0275 -7.89261 0 
1093 1 24.1573 -7.88169 0 
1095 2 25.2861 -7.87134 0 
1097 2 26.419 -7.86899 0 
1099 2 27.5519 -7.8668 0 
1102 2 -27.3381 -6.63684 0 
1104 2 -26.2124 -6.60035 0 
1106 2 -25.0865 -6.56307 0 
1108 1 -23.9616 -6.52458 0 
1109 1 -23.3657 -7.47521 0 
1110 1 -22.8354 -6.48269 0 
1111 1 -22.2373 -7.43264 0 
1112 1 -21.7077 -6.44065 0 
1113 1 -21.1089 -7.38953 0 
1114 1 -20.5796 -6.39657 0 
1115 1 -19.9792 -7.34199 0 
1116 1 -19.4499 -6.34684 0 
1117 1 -18.8502 -7.29105 0 
1119 1 -17.7207 -7.23828 0 
1121 1 -16.59 -7.18374 0 
1123 1 -15.4574 -7.1272 0 
1125 1 -14.3235 -7.06952 0 
1127 1 -13.189 -7.01125 0 
1129 1 -12.0547 -6.95293 0 
1131 1 -10.9213 -6.89172 0 
1133 1 -9.78879 -6.82679 0 
1135 1 -8.65591 -6.76053 0 
1137 1 -7.52441 -6.69188 0 
1139 1 -6.39611 -6.62223 0 
1040 1 -5.80141 -7.57672 0 
1141 1 -5.26935 -6.55158 0 
1042 1 -4.67569 -7.50924 0 
1143 1 -4.14237 -6.48287 0 
1044 1 -3.55051 -7.4452 0 
1046 1 -2.4232 -7.39658 0 
1048 1 -1.30014 -7.34378 0 
1050 1 -0.172769 -7.30017 0 
1052 1 0.955905 -7.26034 0 
1054 1 2.08214 -7.22431 0 
1056 1 3.21264 -7.19768 0 
1058 1 4.34519 -7.16648 0 
1060 1 5.4792 -7.14215 0 
1062 1 6.61179 -7.1178 0 
1064 1 7.74431 -7.09641 0 
1066 1 8.87747 -7.07748 0 
1068 1 10.0114 -7.06092 0 
1070 1 11.1431 -7.04686 0 
1072 1 12.2751 -7.03055 0 
1074 1 13.4079 -7.01329 0 
1076 1 14.5407 -6.99983 0 
1078 1 15.6706 -6.98689 0 
1080 1 16.8004 -6.97464 0 
1082 1 17.9325 -6.96243 0 
1084 1 19.0648 -6.94772 0 
1086 1 20.1966 -6.93289 0 
1088 1 21.3268 -6.92105 0 
1090 1 22.4566 -6.91162 0 
1092 1 23.5852 -6.90348 0 
1094 1 24.7143 -6.89165 0 
1096 2 25.8451 -6.88616 0 
1098 2 26.9784 -6.88422 0 
1100 2 28.1116 -6.88241 0 
1201 2 -27.9311 -5.68349 0 
1203 2 -26.806 -5.64742 0 