ITEM: TIMESTEP
200
ITEM: NUMBER OF ATOMS
2850
ITEM: BOX BOUNDS ff ff pp
-42.092 42.092
-42.092 42.092
-0.280613 0.280613
ITEM: ATOMS id type xu yu zu 
1 2 -27.3398 -28.9988 0 
3 2 -26.2107 -28.9642 0 
5 2 -25.0816 -28.9291 0 
7 2 -23.9525 -28.8936 0 
9 2 -22.8235 -28.8577 0 
11 2 -21.6944 -28.8213 0 
13 2 -20.5655 -28.7844 0 
15 2 -19.4366 -28.7472 0 
17 2 -18.3079 -28.7095 0 
19 2 -17.1793 -28.6715 0 
21 2 -16.0508 -28.6331 0 
23 2 -14.9226 -28.5944 0 
25 2 -13.7947 -28.5554 0 
27 2 -12.667 -28.5163 0 
29 2 -11.5396 -28.477 0 
31 2 -10.4126 -28.4376 0 
33 2 -9.28592 -28.3982 0 
35 2 -8.15967 -28.3589 0 
37 2 -7.03386 -28.3198 0 
39 2 -5.90848 -28.281 0 
2 2 -26.7941 -28.0086 0 
4 2 -25.6649 -27.9736 0 
6 2 -24.5357 -27.9381 0 
8 2 -23.4065 -27.902 0 
10 2 -22.2773 -27.8656 0 
12 2 -21.1481 -27.8286 0 
14 2 -20.019 -27.7912 0 
16 2 -18.89 -27.7533 0 
18 2 -17.7611 -27.715 0 
20 2 -16.6324 -27.6763 0 
22 2 -15.5039 -27.6373 0 
24 2 -14.3755 -27.5979 0 
26 2 -13.2475 -27.5582 0 
28 2 -12.1197 -27.5183 0 
30 2 -10.9923 -27.4783 0 
32 2 -9.86522 -27.4382 0 
34 2 -8.73856 -27.3981 0 
36 2 -7.61233 -27.3581 0 
38 2 -6.48656 -27.3184 0 
40 2 -5.36126 -27.2789 0 
41 2 -4.78357 -28.2426 0 
42 2 -4.23645 -27.24 0 
43 2 -3.65912 -28.2046 0 
44 2 -3.11213 -27.2015 0 
45 2 -2.53513 -28.1673 0 
46 2 -1.98828 -27.1638 0 
47 2 -1.41159 -28.1307 0 
48 2 -0.8649 -27.1269 0 
49 2 -0.288464 -28.095 0 
51 2 0.834263 -28.0602 0 
53 2 1.95663 -28.0264 0 
55 2 3.07869 -27.9937 0 
57 2 4.20048 -27.9622 0 
59 2 5.32207 -27.9319 0 
61 2 6.4435 -27.9029 0 
63 2 7.56483 -27.8752 0 
65 2 8.68613 -27.8488 0 
67 2 9.80743 -27.8237 0 
69 2 10.9288 -27.8 0 
71 2 12.0503 -27.7775 0 
73 2 13.1719 -27.7563 0 
75 2 14.2937 -27.7363 0 
77 2 15.4157 -27.7174 0 
79 2 16.538 -27.6997 0 
81 2 17.6605 -27.683 0 
83 2 18.7832 -27.6673 0 
85 2 19.9063 -27.6526 0 
87 2 21.0296 -27.6388 0 
89 2 22.1532 -27.6258 0 
91 2 23.2771 -27.6136 0 
93 2 24.4012 -27.6022 0 
95 2 25.5256 -27.5914 0 
97 2 26.6503 -27.5812 0 
99 2 27.7752 -27.5717 0 
101 2 -27.378 -27.0533 0 
103 2 -26.2487 -27.0183 0 
102 2 -26.833 -26.0633 0 
105 2 -25.1194 -26.9828 0 
104 2 -25.7037 -26.0278 0 
107 2 -23.9901 -26.9468 0 
106 2 -24.5742 -25.9918 0 
109 2 -22.8607 -26.9102 0 
108 1 -23.4447 -25.9552 0 
111 2 -21.7314 -26.8732 0 
113 2 -20.6021 -26.8357 0 
115 2 -19.4729 -26.7977 0 
117 2 -18.3437 -26.7591 0 
119 2 -17.2147 -26.7202 0 
121 2 -16.0858 -26.6808 0 
123 2 -14.9572 -26.641 0 
125 2 -13.8287 -26.6009 0 
127 2 -12.7006 -26.5605 0 
129 2 -11.5727 -26.5198 0 
131 2 -10.4452 -26.479 0 
133 2 -9.31813 -26.4382 0 
135 2 -8.19146 -26.3973 0 
137 2 -7.06526 -26.3566 0 
139 2 -5.93954 -26.3162 0 
141 2 -4.81433 -26.2762 0 
143 2 -3.68963 -26.2366 0 
145 2 -2.56545 -26.1977 0 
147 2 -1.44177 -26.1596 0 
50 2 0.258046 -27.0909 0 
149 2 -0.318563 -26.1224 0 
52 2 1.38059 -27.056 0 
151 2 0.804196 -26.0862 0 
54 2 2.50279 -27.0222 0 
153 2 1.92656 -26.0512 0 
56 2 3.62468 -26.9896 0 
155 2 3.04857 -26.0174 0 
58 2 4.74633 -26.9582 0 
157 2 4.1703 -25.9849 0 
60 2 5.86779 -26.9282 0 
159 2 5.2918 -25.9538 0 
62 2 6.98913 -26.8996 0 
64 2 8.11041 -26.8723 0 
66 2 9.23169 -26.8465 0 
68 2 10.353 -26.822 0 
70 2 11.4745 -26.7989 0 
72 2 12.596 -26.7771 0 
74 2 13.7178 -26.7566 0 
76 2 14.8398 -26.7373 0 
78 2 15.962 -26.7192 0 
80 2 17.0845 -26.7023 0 
82 2 18.2073 -26.6863 0 
84 2 19.3304 -26.6714 0 
86 2 20.4538 -26.6575 0 
88 2 21.5774 -26.6444 0 
90 2 22.7014 -26.6321 0 
92 2 23.8256 -26.6206 0 
94 2 24.9501 -26.6098 0 
96 2 26.0749 -26.5996 0 
98 2 27.2 -26.5901 0 
100 2 28.3253 -26.5811 0 
201 2 -27.4179 -25.1085 0 
203 2 -26.2885 -25.0731 0 
205 2 -25.159 -25.0372 0 
207 2 -24.0295 -25.0007 0 
209 1 -22.8997 -24.9633 0 
110 1 -22.3152 -25.918 0 
211 1 -21.7701 -24.9254 0 
112 1 -21.1857 -25.8803 0 
213 1 -20.6406 -24.8871 0 
114 1 -20.0564 -25.8421 0 
215 1 -19.5112 -24.8482 0 
116 1 -18.9272 -25.8034 0 
217 1 -18.382 -24.8089 0 
118 1 -17.7981 -25.7643 0 
120 1 -16.6691 -25.7247 0 
122 1 -15.5403 -25.6846 0 
124 1 -14.4118 -25.6442 0 
126 1 -13.2835 -25.6034 0 
128 1 -12.1554 -25.5623 0 
130 1 -11.0277 -25.5209 0 
132 1 -9.90029 -25.4795 0 
134 1 -8.77328 -25.4379 0 
136 1 -7.64669 -25.3964 0 
138 1 -6.52057 -25.3551 0 
140 1 -5.39493 -25.314 0 
142 1 -4.2698 -25.2734 0 
144 1 -3.14519 -25.2333 0 
146 1 -2.0211 -25.1939 0 
148 1 -0.897502 -25.1554 0 
150 1 0.225621 -25.1179 0 
152 1 1.34832 -25.0816 0 
154 1 2.47064 -25.0464 0 
156 1 3.59264 -25.0127 0 
158 1 4.71439 -24.9804 0 
160 1 5.83593 -24.9496 0 
161 2 6.41316 -25.9242 0 
162 1 6.95734 -24.9203 0 
163 2 7.53443 -25.896 0 
164 1 8.07869 -24.8927 0 
165 2 8.65568 -25.8693 0 
167 2 9.77697 -25.844 0 
166 1 9.20003 -24.8665 0 
169 2 10.8984 -25.8202 0 
168 1 10.3215 -24.842 0 
171 2 12.0199 -25.7978 0 
170 1 11.443 -24.8189 0 
173 2 13.1416 -25.7768 0 
172 1 12.5648 -24.7973 0 
175 2 14.2636 -25.7571 0 
177 2 15.3858 -25.7386 0 
179 2 16.5083 -25.7213 0 
181 2 17.6311 -25.7052 0 
183 2 18.7543 -25.6901 0 
185 2 19.8777 -25.6759 0 
187 2 21.0014 -25.6627 0 
189 2 22.1254 -25.6504 0 
191 2 23.2498 -25.6388 0 
193 2 24.3744 -25.628 0 
195 2 25.4993 -25.6179 0 
197 2 26.6245 -25.6084 0 
199 2 27.75 -25.5994 0 
202 2 -26.8739 -24.1187 0 
204 2 -25.7444 -24.0828 0 
206 2 -24.6148 -24.0464 0 
208 1 -23.485 -24.0092 0 
210 1 -22.3552 -23.9711 0 
212 1 -21.2255 -23.9326 0 
214 1 -20.096 -23.8936 0 
216 1 -18.9665 -23.8541 0 
219 1 -17.2529 -24.769 0 
218 1 -17.8373 -23.8141 0 
221 1 -16.124 -24.7288 0 
220 1 -16.7082 -23.7736 0 
222 1 -15.5793 -23.7326 0 
223 1 -14.9953 -24.688 0 
224 1 -14.4506 -23.6911 0 
225 1 -13.8668 -24.6469 0 
226 1 -13.3221 -23.6493 0 
227 1 -12.7385 -24.6054 0 
229 1 -11.6105 -24.5635 0 
231 1 -10.4829 -24.5215 0 
233 1 -9.35552 -24.4793 0 
235 1 -8.22857 -24.4371 0 
237 1 -7.10204 -24.3949 0 
239 1 -5.97598 -24.3529 0 
241 1 -4.85042 -24.3111 0 
243 1 -3.72537 -24.2699 0 
245 1 -2.60086 -24.2293 0 
247 1 -1.47687 -24.1894 0 
249 1 -0.353374 -24.1505 0 
251 1 0.769658 -24.1128 0 
253 1 1.89228 -24.0763 0 
255 1 3.01455 -24.0412 0 
257 1 4.13654 -24.0075 0 
259 1 5.25829 -23.9755 0 
261 1 6.37986 -23.945 0 
263 1 7.50132 -23.9163 0 
265 1 8.62275 -23.8892 0 
267 1 9.74422 -23.8637 0 
269 1 10.8658 -23.8399 0 
271 1 11.9876 -23.8178 0 
273 1 13.1097 -23.7971 0 
174 1 13.6868 -24.7771 0 
275 1 14.232 -23.7778 0 
176 1 14.8091 -24.7583 0 
277 1 15.3547 -23.7599 0 
178 1 15.9317 -24.7407 0 
279 1 16.4778 -23.7433 0 
180 1 17.0547 -24.7243 0 
281 1 17.6012 -23.7277 0 
182 1 18.1779 -24.709 0 
283 1 18.7249 -23.7133 0 
184 1 19.3015 -24.6947 0 
285 1 19.8489 -23.6999 0 
186 1 20.4254 -24.6814 0 
287 1 20.9732 -23.6873 0 
188 1 21.5495 -24.6689 0 
289 1 22.0978 -23.6756 0 
190 1 22.674 -24.6573 0 
291 1 23.2227 -23.6646 0 
192 1 23.7987 -24.6463 0 
293 1 24.3478 -23.6542 0 
194 1 24.9237 -24.6361 0 
295 2 25.4729 -23.6443 0 
196 2 26.0488 -24.6264 0 
198 2 27.1745 -24.6176 0 
200 2 28.3003 -24.6093 0 
301 2 -27.4598 -23.1644 0 
303 2 -26.3303 -23.1287 0 
305 2 -25.2007 -23.0924 0 
307 2 -24.071 -23.0555 0 
309 1 -22.9411 -23.0174 0 
311 1 -21.8112 -22.9788 0 
313 1 -20.6814 -22.9396 0 
315 1 -19.5518 -22.9 0 
317 1 -18.4223 -22.8598 0 
319 1 -17.293 -22.8191 0 
321 1 -16.1639 -22.7779 0 
323 1 -15.0349 -22.7363 0 
325 1 -13.9062 -22.6941 0 
327 1 -12.7777 -22.6515 0 
228 1 -12.1939 -23.607 0 
329 1 -11.6495 -22.6085 0 
230 1 -11.0659 -23.5645 0 
331 1 -10.5215 -22.5652 0 
232 1 -9.93824 -23.5217 0 
333 1 -9.3938 -22.5216 0 
234 1 -8.81092 -23.4788 0 
236 1 -7.68399 -23.4358 0 
238 1 -6.55751 -23.3928 0 
240 1 -5.4315 -23.3501 0 
242 1 -4.30602 -23.3077 0 
244 1 -3.18107 -23.2658 0 
246 1 -2.05668 -23.2246 0 
248 1 -0.932812 -23.1843 0 
250 1 0.190555 -23.145 0 
252 1 1.31347 -23.107 0 
254 1 2.43601 -23.0704 0 
256 1 3.55822 -23.0353 0 
258 1 4.68017 -23.0019 0 
260 1 5.80193 -22.9702 0 
262 1 6.92355 -22.9402 0 
264 1 8.04509 -22.912 0 
266 1 9.16664 -22.8856 0 
268 1 10.2883 -22.861 0 
270 1 11.4101 -22.8381 0 
272 1 12.5322 -22.8169 0 
274 1 13.6546 -22.7972 0 
276 1 14.7774 -22.779 0 
278 1 15.9005 -22.762 0 
280 1 17.024 -22.7463 0 
282 1 18.1479 -22.7317 0 
284 1 19.2721 -22.7182 0 
286 1 20.3966 -22.7055 0 
288 1 21.5214 -22.6937 0 
290 1 22.6464 -22.6826 0 
292 1 23.7716 -22.6722 0 
294 1 24.8971 -22.6624 0 
297 2 26.5987 -23.6355 0 
296 2 26.0228 -22.6533 0 
299 2 27.7248 -23.6273 0 
298 2 27.149 -22.6452 0 
300 2 28.2755 -22.6376 0 
302 2 -26.9167 -22.1747 0 
304 2 -25.7871 -22.1385 0 
306 2 -24.6574 -22.1018 0 
308 1 -23.5276 -22.0641 0 
310 1 -22.3976 -22.0255 0 
312 1 -21.2677 -21.9863 0 
314 1 -20.1379 -21.9466 0 
316 1 -19.0081 -21.9063 0 
318 1 -17.8786 -21.8655 0 
320 1 -16.7492 -21.8242 0 
322 1 -15.62 -21.7823 0 
324 1 -14.491 -21.7399 0 
326 1 -13.3622 -21.697 0 
328 1 -12.2337 -21.6536 0 
330 1 -11.1053 -21.6098 0 
332 1 -9.97727 -21.5658 0 
334 1 -8.84952 -21.5214 0 
335 1 -8.26647 -22.4779 0 
336 1 -7.72216 -21.4768 0 
337 1 -7.13955 -22.4341 0 
338 1 -6.59524 -21.4322 0 
339 1 -6.0131 -22.3904 0 
340 1 -5.46883 -21.3875 0 
341 1 -4.88716 -22.3469 0 
342 1 -4.34298 -21.3431 0 
343 1 -3.76178 -22.3037 0 
345 1 -2.63696 -22.2611 0 
347 1 -1.51271 -22.2193 0 
349 1 -0.389005 -22.1784 0 
351 1 0.734205 -22.1388 0 
353 1 1.85699 -22.1006 0 
355 1 2.97942 -22.0639 0 
357 1 4.10156 -22.029 0 
359 1 5.2235 -21.9958 0 
361 1 6.34529 -21.9645 0 
363 1 7.46698 -21.9351 0 
365 1 8.58867 -21.9076 0 
367 1 9.71041 -21.8821 0 
369 1 10.8323 -21.8585 0 
371 1 11.9545 -21.8366 0 
373 1 13.0769 -21.8165 0 
375 1 14.1997 -21.7978 0 
377 1 15.323 -21.7806 0 
379 1 16.4466 -21.7647 0 
381 1 17.5706 -21.7499 0 
383 1 18.6949 -21.7362 0 
385 1 19.8196 -21.7235 0 
387 1 20.9445 -21.7117 0 
389 1 22.0698 -21.7006 0 
391 1 23.1952 -21.6902 0 
393 1 24.3208 -21.6803 0 
395 2 25.4466 -21.6709 0 
397 2 26.573 -21.6629 0 
399 2 27.6998 -21.6554 0 
401 2 -27.5037 -21.2208 0 
403 2 -26.3741 -21.1849 0 
402 2 -26.9617 -20.2313 0 
405 2 -25.2445 -21.1483 0 
404 2 -25.8321 -20.1949 0 
407 2 -24.1147 -21.111 0 
409 1 -22.9848 -21.0727 0 
411 1 -21.8548 -21.0335 0 
413 1 -20.7248 -20.9938 0 
415 1 -19.5948 -20.9535 0 
417 1 -18.465 -20.9126 0 
419 1 -17.3354 -20.8711 0 
421 1 -16.2059 -20.8291 0 
423 1 -15.0767 -20.7865 0 
425 1 -13.9476 -20.7434 0 
427 1 -12.8187 -20.6997 0 
429 1 -11.69 -20.6555 0 
431 1 -10.5615 -20.611 0 
433 1 -9.43329 -20.566 0 
435 1 -8.30545 -20.5207 0 
437 1 -7.17804 -20.4752 0 
439 1 -6.05113 -20.4295 0 
441 1 -4.92478 -20.3838 0 
344 1 -3.21772 -21.2991 0 
443 1 -3.79904 -20.3384 0 
346 1 -2.09306 -21.2557 0 
445 1 -2.67394 -20.2934 0 
348 1 -0.969 -21.2132 0 
447 1 -1.54948 -20.2491 0 
350 1 0.154513 -21.1718 0 
449 1 -0.42564 -20.2058 0 
352 1 1.27754 -21.1318 0 
354 1 2.40016 -21.0933 0 
356 1 3.52248 -21.0567 0 
358 1 4.64457 -21.0219 0 
360 1 5.76651 -20.9891 0 
362 1 6.88837 -20.9584 0 
364 1 8.01021 -20.9298 0 
366 1 9.1321 -20.9032 0 
368 1 10.2541 -20.8787 0 
370 1 11.3763 -20.8562 0 
372 1 12.4989 -20.8355 0 
374 1 13.6218 -20.8165 0 
376 1 14.7451 -20.799 0 
378 1 15.8688 -20.7828 0 
380 1 16.9929 -20.7679 0 
382 1 18.1174 -20.7541 0 
384 1 19.2423 -20.7413 0 
386 1 20.3674 -20.7294 0 
388 1 21.4929 -20.7183 0 
390 1 22.6185 -20.7079 0 
392 1 23.7444 -20.6981 0 
394 1 24.8705 -20.6888 0 
396 2 25.9969 -20.6804 0 
398 2 27.1238 -20.673 0 
400 2 28.251 -20.6661 0 
501 2 -27.5497 -19.2779 0 
503 2 -26.4202 -19.2417 0 
505 2 -25.2906 -19.2049 0 
406 2 -24.7023 -20.1579 0 
507 2 -24.1608 -19.1673 0 
408 1 -23.5726 -20.12 0 
509 1 -23.031 -19.1287 0 
410 1 -22.4426 -20.0811 0 
511 1 -21.901 -19.0893 0 
412 1 -21.3125 -20.0414 0 
414 1 -20.1824 -20.0011 0 
513 1 -20.7709 -19.0491 0 
416 1 -19.0524 -19.9601 0 
418 1 -17.9225 -19.9186 0 
420 1 -16.7928 -19.8764 0 
422 1 -15.6632 -19.8337 0 
424 1 -14.5338 -19.7904 0 
426 1 -13.4046 -19.7464 0 
428 1 -12.2755 -19.7019 0 
430 1 -11.1466 -19.6569 0 
432 1 -10.0179 -19.6113 0 
434 1 -8.88956 -19.5653 0 
436 1 -7.76162 -19.5189 0 
438 1 -6.63417 -19.4721 0 
440 1 -5.50729 -19.4252 0 
442 1 -4.38103 -19.3783 0 
444 1 -3.25545 -19.3317 0 
446 1 -2.13056 -19.2856 0 
448 1 -1.00635 -19.2404 0 
450 1 0.117233 -19.1964 0 
451 1 0.697646 -20.1639 0 
452 1 1.24026 -19.154 0 
453 1 1.82046 -20.1235 0 
454 1 2.36285 -19.1135 0 
455 1 2.94291 -20.085 0 
456 1 3.48512 -19.0751 0 
457 1 4.06511 -20.0484 0 
458 1 4.60722 -19.039 0 
459 1 5.18716 -20.0141 0 
461 1 6.30915 -19.9819 0 
463 1 7.43116 -19.952 0 
465 1 8.55323 -19.9244 0 
467 1 9.67543 -19.899 0 
469 1 10.7978 -19.8757 0 
471 1 11.9205 -19.8544 0 
473 1 13.0434 -19.8349 0 
475 1 14.1668 -19.8171 0 
477 1 15.2906 -19.8007 0 
479 1 16.4149 -19.7856 0 
481 1 17.5396 -19.7717 0 
483 1 18.6646 -19.7589 0 
485 1 19.79 -19.747 0 
487 1 20.9157 -19.7359 0 
489 1 22.0416 -19.7255 0 
491 1 23.1677 -19.7158 0 
493 1 24.294 -19.7066 0 
495 2 25.4205 -19.6978 0 
497 2 26.5477 -19.6905 0 
499 2 27.6751 -19.6838 0 
502 2 -27.0088 -18.2886 0 
504 2 -25.8793 -18.252 0 
506 2 -24.7497 -18.2147 0 
508 1 -23.6199 -18.1764 0 
510 1 -22.4901 -18.1373 0 
512 1 -21.3601 -18.0974 0 
514 1 -20.2299 -18.0565 0 
515 1 -19.6407 -19.0081 0 
516 1 -19.0997 -18.0149 0 
517 1 -18.5106 -18.9665 0 
518 1 -17.9695 -17.9726 0 
519 1 -17.3806 -18.9242 0 
520 1 -16.8394 -17.9295 0 
521 1 -16.2508 -18.8813 0 
522 1 -15.7094 -17.8858 0 
523 1 -15.1211 -18.8378 0 
525 1 -13.9915 -18.7936 0 
527 1 -12.862 -18.7487 0 
529 1 -11.7326 -18.7032 0 
531 1 -10.6035 -18.657 0 
533 1 -9.47458 -18.6102 0 
535 1 -8.34609 -18.5628 0 
537 1 -7.21807 -18.5149 0 
539 1 -6.09062 -18.4667 0 
541 1 -4.96382 -18.4184 0 
543 1 -3.83772 -18.3701 0 
545 1 -2.71237 -18.3222 0 
547 1 -1.58775 -18.275 0 
549 1 -0.463841 -18.2289 0 
551 1 0.65943 -18.1844 0 
553 1 1.78217 -18.1418 0 
555 1 2.90451 -18.1015 0 
557 1 4.02663 -18.0636 0 
559 1 5.1487 -18.0284 0 
460 1 5.72929 -19.0054 0 
561 1 6.27088 -17.9959 0 
462 1 6.85141 -18.9741 0 
563 1 7.39326 -17.9659 0 
464 1 7.97366 -18.9453 0 
565 1 8.51588 -17.9385 0 
466 1 9.09607 -18.9189 0 
567 1 9.63877 -17.9137 0 
468 1 10.2187 -18.8949 0 
569 1 10.7619 -17.8912 0 
470 1 11.3416 -18.873 0 
472 1 12.4647 -18.8531 0 
474 1 13.5882 -18.8349 0 
476 1 14.7122 -18.8183 0 
478 1 15.8366 -18.8031 0 
480 1 16.9614 -18.789 0 
482 1 18.0867 -18.7762 0 
484 1 19.2123 -18.7643 0 
486 1 20.3382 -18.7532 0 
488 1 21.4644 -18.7429 0 
490 1 22.5908 -18.7333 0 
492 1 23.7174 -18.7242 0 
494 1 24.8443 -18.7155 0 
496 2 25.9714 -18.7078 0 
498 2 27.0991 -18.7012 0 
500 2 28.2271 -18.6951 0 
601 2 -27.5979 -17.3354 0 
603 2 -26.4686 -17.2992 0 
605 2 -25.3391 -17.2621 0 
607 2 -24.2094 -17.2244 0 
609 1 -23.0797 -17.1854 0 
611 1 -21.9498 -17.1458 0 
613 1 -20.8198 -17.1053 0 
615 1 -19.6896 -17.0639 0 
617 1 -18.5593 -17.0217 0 
619 1 -17.429 -16.9786 0 
621 1 -16.2988 -16.9347 0 
524 1 -14.5795 -17.8413 0 
623 1 -15.1685 -16.8899 0 
526 1 -13.4496 -17.7961 0 
625 1 -14.0382 -16.8443 0 
528 1 -12.3197 -17.75 0 
627 1 -12.9079 -16.7977 0 
530 1 -11.19 -17.7032 0 
629 1 -11.7776 -16.7502 0 
532 1 -10.0606 -17.6556 0 
534 1 -8.93148 -17.6072 0 
536 1 -7.80286 -17.5582 0 
538 1 -6.67483 -17.5087 0 
540 1 -5.54746 -17.4589 0 
542 1 -4.42082 -17.4089 0 
544 1 -3.29497 -17.3591 0 
546 1 -2.16992 -17.3098 0 
548 1 -1.04567 -17.2615 0 
550 1 0.0778454 -17.2146 0 
552 1 1.20071 -17.1698 0 
554 1 2.32309 -17.1273 0 
556 1 3.44519 -17.0876 0 
558 1 4.56725 -17.0509 0 
560 1 5.68945 -17.017 0 
562 1 6.81192 -16.9859 0 
564 1 7.93471 -16.9575 0 
566 1 9.05786 -16.9318 0 
568 1 10.1814 -16.9087 0 
571 1 11.8854 -17.8708 0 
570 1 11.3052 -16.8879 0 
573 1 13.0092 -17.8524 0 
572 1 12.4294 -16.8693 0 
575 1 14.1333 -17.8356 0 
574 1 13.5539 -16.8524 0 
577 1 15.2579 -17.8202 0 
576 1 14.6788 -16.837 0 
579 1 16.3829 -17.8061 0 
578 1 15.804 -16.8228 0 
581 1 17.5083 -17.7932 0 
580 1 16.9297 -16.8099 0 
583 1 18.6342 -17.7813 0 
582 1 18.0558 -16.798 0 
585 1 19.7604 -17.7703 0 
584 1 19.1823 -16.7871 0 
587 1 20.8869 -17.7601 0 
586 1 20.3091 -16.777 0 
589 1 22.0136 -17.7506 0 
588 1 21.4362 -16.7676 0 
591 1 23.1405 -17.7416 0 
590 1 22.5635 -16.7588 0 
593 1 24.2676 -17.7331 0 
592 1 23.6909 -16.7505 0 
595 2 25.3948 -17.725 0 
594 1 24.8186 -16.7426 0 
596 2 25.9465 -16.7357 0 
597 2 26.5229 -17.7186 0 
598 2 27.0751 -16.7299 0 
599 2 27.6512 -17.7126 0 
600 2 28.2039 -16.7246 0 
602 2 -27.0583 -16.3463 0 
604 2 -25.929 -16.3096 0 
606 2 -24.7995 -16.2721 0 
608 1 -23.6699 -16.2337 0 
610 1 -22.5401 -16.1942 0 
612 1 -21.4103 -16.1542 0 
614 1 -20.2802 -16.1132 0 
616 1 -19.15 -16.0712 0 
618 1 -18.0196 -16.0282 0 
620 1 -16.8891 -15.9842 0 
622 1 -15.7586 -15.9392 0 
624 1 -14.6279 -15.8933 0 
626 1 -13.4971 -15.8462 0 
628 1 -12.3663 -15.7981 0 
630 1 -11.2356 -15.749 0 
631 1 -10.6475 -16.7018 0 
632 1 -10.1053 -15.699 0 
633 1 -9.51783 -16.6526 0 
634 1 -8.97539 -15.6482 0 
635 1 -8.38859 -16.6026 0 
636 1 -7.84609 -15.5965 0 
637 1 -7.25994 -16.5519 0 
639 1 -6.13196 -16.5007 0 
641 1 -5.00473 -16.4491 0 
643 1 -3.87832 -16.3974 0 
645 1 -2.75277 -16.346 0 
647 1 -1.62811 -16.2953 0 
649 1 -0.504333 -16.2458 0 
651 1 0.618611 -16.1981 0 
653 1 1.74091 -16.1531 0 
655 1 2.86285 -16.1111 0 
657 1 3.98479 -16.0726 0 
659 1 5.10698 -16.0375 0 
661 1 6.22953 -16.0053 0 
663 1 7.3525 -15.9759 0 
665 1 8.47587 -15.9493 0 
667 1 9.59969 -15.9254 0 
669 1 10.7239 -15.9042 0 
671 1 11.8486 -15.8854 0 
673 1 12.9737 -15.8685 0 
675 1 14.099 -15.8531 0 
677 1 15.2247 -15.8391 0 
679 1 16.3507 -15.8262 0 
681 1 17.4771 -15.8144 0 
683 1 18.6039 -15.8036 0 
685 1 19.7311 -15.7936 0 
687 1 20.8585 -15.7844 0 
689 1 21.9861 -15.7758 0 
691 1 23.1139 -15.7677 0 
693 1 24.2419 -15.7601 0 
695 2 25.3699 -15.7527 0 
697 2 26.4989 -15.7471 0 
699 2 27.6281 -15.742 0 
701 2 -27.6483 -15.3934 0 
703 2 -26.5193 -15.357 0 
705 2 -25.3901 -15.3199 0 
707 2 -24.2607 -15.282 0 
709 1 -23.1311 -15.2428 0 
711 1 -22.0014 -15.2029 0 
713 1 -20.8715 -15.1623 0 
715 1 -19.7414 -15.1207 0 
717 1 -18.6111 -15.078 0 
719 1 -17.4805 -15.0341 0 
721 1 -16.3497 -14.989 0 
723 1 -15.2187 -14.9428 0 
725 1 -14.0874 -14.8954 0 
727 1 -12.956 -14.8467 0 
729 1 -11.8248 -14.7971 0 
731 1 -10.6939 -14.7464 0 
733 1 -9.56341 -14.6949 0 
735 1 -8.43346 -14.6423 0 
638 1 -6.71746 -15.5441 0 
737 1 -7.30413 -14.5889 0 
640 1 -5.58956 -15.4912 0 
739 1 -6.17549 -14.5347 0 
642 1 -4.46247 -15.4378 0 
741 1 -5.04764 -14.4797 0 
644 1 -3.33628 -15.3844 0 
743 1 -3.92068 -14.4244 0 
646 1 -2.21106 -15.3312 0 
648 1 -1.08691 -15.2789 0 
650 1 0.0361543 -15.228 0 
652 1 1.15828 -15.1797 0 
654 1 2.27986 -15.1348 0 
656 1 3.40142 -15.094 0 
658 1 4.52339 -15.0573 0 
660 1 5.64595 -15.0241 0 
662 1 6.76911 -14.9939 0 
664 1 7.89279 -14.9665 0 
666 1 9.01692 -14.9417 0 
668 1 10.1415 -14.9198 0 
670 1 11.2666 -14.9005 0 
672 1 12.3923 -14.8836 0 
674 1 13.5183 -14.8685 0 
676 1 14.6446 -14.8547 0 
678 1 15.7711 -14.8421 0 
680 1 16.8979 -14.8305 0 
682 1 18.0251 -14.8198 0 
684 1 19.1527 -14.81 0 
686 1 20.2805 -14.8009 0 
688 1 21.4086 -14.7925 0 
690 1 22.5368 -14.7847 0 
692 1 23.6652 -14.7773 0 
694 1 24.7938 -14.7702 0 
696 2 25.9226 -14.7642 0 
698 2 27.0521 -14.7592 0 
700 2 28.1818 -14.7547 0 
702 2 -27.11 -14.4044 0 
801 2 -27.7009 -13.4516 0 
704 2 -25.9811 -14.3676 0 
803 2 -26.5724 -13.4152 0 
706 2 -24.852 -14.3301 0 
805 2 -25.4437 -13.3781 0 
708 1 -23.7227 -14.2915 0 
807 2 -24.3146 -13.3401 0 
710 1 -22.5931 -14.2519 0 
809 1 -23.1854 -13.3009 0 
712 1 -21.4633 -14.2115 0 
714 1 -20.3335 -14.1703 0 
716 1 -19.2033 -14.128 0 
718 1 -18.0728 -14.0844 0 
720 1 -16.9419 -14.0394 0 
722 1 -15.8105 -13.993 0 
724 1 -14.6788 -13.9453 0 
726 1 -13.547 -13.8963 0 
728 1 -12.4152 -13.8462 0 
730 1 -11.2837 -13.795 0 
732 1 -10.1526 -13.7428 0 
734 1 -9.02196 -13.6895 0 
736 1 -7.89189 -13.6351 0 
738 1 -6.76245 -13.5796 0 
740 1 -5.63374 -13.5232 0 
742 1 -4.50592 -13.466 0 
744 1 -3.37928 -13.4083 0 
745 1 -2.79476 -14.3689 0 
746 1 -2.25413 -13.3503 0 
747 1 -1.6701 -14.3138 0 
748 1 -1.13064 -13.2929 0 
749 1 -0.546802 -14.2597 0 
751 1 0.575238 -14.2078 0 
753 1 1.69644 -14.1594 0 
755 1 2.81741 -14.1156 0 
757 1 3.93879 -14.0767 0 
759 1 5.06102 -14.0423 0 
761 1 6.18426 -14.0114 0 
763 1 7.30831 -13.9833 0 
765 1 8.43293 -13.9578 0 
767 1 9.55798 -13.935 0 
769 1 10.6835 -13.9151 0 
771 1 11.8096 -13.8978 0 
773 1 12.9363 -13.8829 0 
775 1 14.0634 -13.8695 0 
777 1 15.1907 -13.8573 0 
779 1 16.3182 -13.846 0 
781 1 17.4459 -13.8356 0 
783 1 18.5739 -13.826 0 
785 1 19.7023 -13.8171 0 
787 1 20.8308 -13.809 0 
789 1 21.9595 -13.8014 0 
791 1 23.0883 -13.7943 0 
793 1 24.2172 -13.7875 0 
795 2 25.3462 -13.7811 0 
797 2 26.4761 -13.7764 0 
799 2 27.6062 -13.772 0 
802 2 -27.164 -12.4626 0 
804 2 -26.0357 -12.4259 0 
806 2 -24.9071 -12.3884 0 
808 1 -23.7781 -12.3497 0 
810 1 -22.6489 -12.3101 0 
811 1 -22.0558 -13.2609 0 
812 1 -21.5193 -12.2697 0 
813 1 -20.926 -13.22 0 
814 1 -20.3894 -12.2281 0 
815 1 -19.7961 -13.1781 0 
816 1 -19.2592 -12.1854 0 
817 1 -18.6658 -13.135 0 
818 1 -18.1285 -12.1413 0 
819 1 -17.5349 -13.0903 0 
821 1 -16.4034 -13.044 0 
823 1 -15.2714 -12.9962 0 
825 1 -14.139 -12.947 0 
827 1 -13.0067 -12.8966 0 
829 1 -11.8745 -12.845 0 
831 1 -10.7427 -12.7923 0 
833 1 -9.61135 -12.7382 0 
835 1 -8.4804 -12.6829 0 
837 1 -7.35001 -12.6264 0 
839 1 -6.22029 -12.5688 0 
841 1 -5.09156 -12.5101 0 
843 1 -3.96422 -12.4503 0 
845 1 -2.83876 -12.3895 0 
847 1 -1.71519 -12.3287 0 
750 1 -0.00859714 -13.2373 0 
849 1 -0.593093 -12.2692 0 
851 1 0.527909 -12.2126 0 
752 1 1.11245 -13.1849 0 
853 1 1.64807 -12.1604 0 
754 1 2.23294 -13.1374 0 
855 1 2.76789 -12.1143 0 
756 1 3.35348 -13.0956 0 
758 1 4.47486 -13.0595 0 
760 1 5.59766 -13.028 0 
762 1 6.72188 -12.9997 0 
764 1 7.84716 -12.9739 0 
766 1 8.97304 -12.9504 0 
768 1 10.0992 -12.9295 0 
770 1 11.2258 -12.9116 0 
772 1 12.353 -12.8964 0 
774 1 13.4808 -12.8832 0 
776 1 14.6091 -12.8716 0 
778 1 15.7376 -12.8608 0 
780 1 16.8661 -12.8509 0 
782 1 17.9947 -12.8416 0 
784 1 19.1236 -12.833 0 
786 1 20.2527 -12.8251 0 
788 1 21.382 -12.8178 0 
790 1 22.5113 -12.811 0 
792 1 23.6407 -12.8046 0 
794 1 24.7702 -12.7985 0 
796 2 25.9 -12.7934 0 
798 2 27.0306 -12.7893 0 
800 2 28.1612 -12.7854 0 
901 2 -27.7557 -11.5099 0 
903 2 -26.6279 -11.4735 0 
905 2 -25.4997 -11.4364 0 
907 2 -24.3713 -11.3985 0 
909 1 -23.2423 -11.3592 0 
911 1 -22.1131 -11.3192 0 
913 1 -20.9835 -11.2782 0 
915 1 -19.8534 -11.236 0 
917 1 -18.7228 -11.1923 0 
820 1 -16.9971 -12.0955 0 
919 1 -17.5914 -11.1471 0 
822 1 -15.8649 -12.0478 0 
921 1 -16.4593 -11.1001 0 
824 1 -14.7322 -11.9987 0 
923 1 -15.3265 -11.0512 0 
826 1 -13.5993 -11.9481 0 
925 1 -14.1932 -11.0008 0 
828 1 -12.4665 -11.8963 0 
927 1 -13.0597 -10.9488 0 
830 1 -11.3339 -11.843 0 
832 1 -10.2015 -11.7884 0 
834 1 -9.06952 -11.7324 0 
836 1 -7.93796 -11.6751 0 
838 1 -6.80711 -11.6165 0 
840 1 -5.67739 -11.5565 0 
842 1 -4.54954 -11.4947 0 
844 1 -3.4239 -11.4314 0 
846 1 -2.30015 -11.3675 0 
848 1 -1.1778 -11.3046 0 
850 1 -0.0568026 -11.2436 0 
852 1 1.063 -11.1864 0 
854 1 2.18249 -11.1353 0 
857 1 3.88817 -12.0755 0 
856 1 3.30218 -11.0918 0 
859 1 5.00976 -12.043 0 
858 1 4.42232 -11.0564 0 
861 1 6.13331 -12.0148 0 
860 1 5.54409 -11.0278 0 
863 1 7.25887 -11.9893 0 
862 1 6.66857 -11.0032 0 
865 1 8.38577 -11.9658 0 
864 1 7.79563 -10.9805 0 
867 1 9.51324 -11.9443 0 
869 1 10.6408 -11.9255 0 
871 1 11.7686 -11.9096 0 
873 1 12.897 -11.8963 0 
875 1 14.0262 -11.8849 0 
877 1 15.1557 -11.8748 0 
879 1 16.2854 -11.8655 0 
881 1 17.4149 -11.8568 0 
883 1 18.5446 -11.8486 0 
885 1 19.6743 -11.841 0 
887 1 20.8042 -11.834 0 
889 1 21.9341 -11.8275 0 
891 1 23.064 -11.8214 0 
893 1 24.194 -11.8157 0 
895 2 25.3239 -11.8103 0 
897 2 26.4549 -11.8064 0 
899 2 27.586 -11.8028 0 
902 2 -27.2202 -10.5209 0 
904 2 -26.0925 -10.4842 0 
906 2 -24.9646 -10.4468 0 
908 1 -23.8362 -10.4082 0 
910 1 -22.7073 -10.3687 0 
912 1 -21.5781 -10.3283 0 
914 1 -20.4483 -10.2867 0 
916 1 -19.3178 -10.2436 0 
918 1 -18.1866 -10.199 0 
920 1 -17.0546 -10.1527 0 
922 1 -15.9219 -10.1046 0 
924 1 -14.7884 -10.0546 0 
926 1 -13.6543 -10.0028 0 
928 1 -12.5199 -9.94908 0 
929 1 -11.9261 -10.8952 0 
930 1 -11.3855 -9.89385 0 
931 1 -10.7927 -10.8401 0 
932 1 -10.2513 -9.83727 0 
933 1 -9.65953 -10.7837 0 
935 1 -8.52674 -10.7259 0 
937 1 -7.3947 -10.6665 0 
939 1 -6.26417 -10.605 0 
941 1 -5.13596 -10.5409 0 
943 1 -4.01005 -10.4747 0 
945 1 -2.88578 -10.4079 0 
947 1 -1.76291 -10.3415 0 
949 1 -0.64208 -10.2763 0 
951 1 0.477412 -10.2151 0 
953 1 1.5971 -10.1603 0 
955 1 2.71729 -10.1121 0 
957 1 3.83725 -10.0709 0 
959 1 4.95742 -10.039 0 
961 1 6.07937 -10.0146 0 
963 1 7.20453 -9.99355 0 
965 1 8.33313 -9.9736 0 
866 1 8.92445 -10.9592 0 
967 1 9.4639 -9.95443 0 
868 1 10.0538 -10.9399 0 
969 1 10.5954 -9.93724 0 
870 1 11.1831 -10.9232 0 
971 1 11.7265 -9.92263 0 
872 1 12.3123 -10.9092 0 
973 1 12.8573 -9.91064 0 
874 1 13.4421 -10.8977 0 
975 1 13.9885 -9.90081 0 
876 1 14.5726 -10.888 0 
977 1 15.1203 -9.89253 0 
878 1 15.7035 -10.8793 0 
979 1 16.2526 -9.88518 0 
880 1 16.8343 -10.8713 0 
981 1 17.3846 -9.87831 0 
882 1 17.965 -10.8637 0 
983 1 18.5163 -9.87175 0 
884 1 19.0956 -10.8566 0 
985 1 19.6479 -9.86552 0 
886 1 20.2262 -10.8499 0 
987 1 20.7793 -9.85968 0 
888 1 21.3568 -10.8437 0 
890 1 22.4873 -10.838 0 
989 1 21.9106 -9.85428 0 
892 1 23.6179 -10.8326 0 
991 1 23.0417 -9.8493 0 
894 1 24.7485 -10.8276 0 
993 1 24.1728 -9.8447 0 
896 2 25.8793 -10.8234 0 
995 2 25.3037 -9.84035 0 
898 2 27.0108 -10.8201 0 
997 2 26.4357 -9.83726 0 
900 2 28.1423 -10.817 0 
999 2 27.5677 -9.8344 0 
1001 2 -27.8125 -9.56805 0 
1003 2 -26.6854 -9.5318 0 
1005 2 -25.5581 -9.49477 0 
1007 2 -24.4305 -9.45693 0 
1009 1 -23.302 -9.41793 0 
1011 1 -22.1731 -9.37806 0 
1013 1 -21.0437 -9.3372 0 
1015 1 -19.9136 -9.29493 0 
1017 1 -18.7827 -9.25098 0 
1019 1 -17.651 -9.20543 0 
1021 1 -16.5185 -9.1582 0 
1023 1 -15.3851 -9.10903 0 
1025 1 -14.2508 -9.05773 0 
1027 1 -13.1157 -9.0043 0 
1029 1 -11.9806 -8.94928 0 
1031 1 -10.846 -8.89298 0 
934 1 -9.11757 -9.77933 0 
1033 1 -9.71167 -8.83484 0 
936 1 -7.98455 -9.71904 0 
1035 1 -8.57815 -8.77374 0 
938 1 -6.85344 -9.65575 0 
1037 1 -7.44631 -8.7081 0 
940 1 -5.72471 -9.58894 0 
1039 1 -6.31698 -8.63909 0 
942 1 -4.59809 -9.52009 0 
944 1 -3.47264 -9.45034 0 
946 1 -2.34926 -9.38041 0 
948 1 -1.22811 -9.31092 0 
950 1 -0.108014 -9.24517 0 
952 1 1.01173 -9.18631 0 
954 1 2.13192 -9.13453 0 
956 1 3.25303 -9.08898 0 
958 1 4.37453 -9.05138 0 
960 1 5.49533 -9.0234 0 
962 1 6.61742 -9.00336 0 
964 1 7.74303 -8.98611 0 
966 1 8.87269 -8.96859 0 
968 1 10.0052 -8.95155 0 
970 1 11.1387 -8.93646 0 
972 1 12.2716 -8.924 0 
974 1 13.404 -8.91385 0 
976 1 14.5365 -8.90553 0 
978 1 15.6698 -8.89855 0 
980 1 16.8033 -8.89235 0 
982 1 17.9365 -8.8865 0 
984 1 19.0692 -8.88086 0 
986 1 20.2016 -8.87546 0 
988 1 21.3337 -8.87041 0 
990 1 22.4656 -8.86576 0 
992 1 23.5973 -8.86152 0 
994 1 24.729 -8.85761 0 
996 2 25.8608 -8.85435 0 
998 2 26.9933 -8.85174 0 
1000 2 28.1257 -8.84931 0 
1002 2 -27.2783 -8.57905 0 
1101 2 -27.8711 -7.62598 0 
1004 2 -26.1516 -8.54247 0 
1103 2 -26.7449 -7.58983 0 
1006 2 -25.0246 -8.50509 0 
1105 2 -25.6186 -7.5529 0 
1008 1 -23.8968 -8.46675 0 
1107 2 -24.492 -7.51516 0 
1010 1 -22.7685 -8.4276 0 
1012 1 -21.6395 -8.38736 0 
1014 1 -20.5099 -8.34596 0 
1016 1 -19.3795 -8.30302 0 
1018 1 -18.2483 -8.25833 0 
1020 1 -17.1162 -8.21199 0 
1022 1 -15.9832 -8.16385 0 
1024 1 -14.849 -8.11349 0 
1026 1 -13.7137 -8.06078 0 
1028 1 -12.5783 -8.00624 0 
1030 1 -11.4436 -7.95044 0 
1032 1 -10.3091 -7.89224 0 
1034 1 -9.17512 -7.82992 0 
1036 1 -8.04254 -7.76261 0 
1038 1 -6.91232 -7.69137 0 
1041 1 -5.18917 -8.56785 0 
1040 1 -5.78458 -7.61939 0 
1043 1 -4.06313 -8.49662 0 
1042 1 -4.65855 -7.54734 0 
1045 1 -2.93849 -8.4243 0 
1044 1 -3.53228 -7.47519 0 
1047 1 -1.81477 -8.35172 0 
1049 1 -0.692426 -8.28039 0 
1051 1 0.427765 -8.2121 0 
1053 1 1.54645 -8.15303 0 
1055 1 2.66633 -8.10585 0 
1057 1 3.78976 -8.06692 0 
1059 1 4.91374 -8.03339 0 
1061 1 6.03688 -8.01005 0 
1063 1 7.15974 -7.99422 0 
1065 1 8.28558 -7.9805 0 
1067 1 9.41575 -7.96547 0 
1069 1 10.5495 -7.95048 0 
1071 1 11.6845 -7.93757 0 
1073 1 12.8191 -7.92726 0 
1075 1 13.9527 -7.9188 0 
1077 1 15.0866 -7.91181 0 
1079 1 16.2211 -7.90598 0 
1081 1 17.3558 -7.9008 0 
1083 1 18.49 -7.89584 0 
1085 1 19.6237 -7.891 0 
1087 1 20.7568 -7.88636 0 
1089 1 21.8896 -7.88205 0 
1091 1 23.0219 -7.87813 0 
1093 1 24.1541 -7.8746 0 
1095 2 25.2861 -7.87134 0 
1097 2 26.419 -7.86899 0 
1099 2 27.5519 -7.8668 0 
1102 2 -27.3381 -6.63684 0 
1104 2 -26.2124 -6.60035 0 
1106 2 -25.0865 -6.56307 0 
1108 1 -23.9596 -6.52506 0 
1109 1 -23.3641 -7.47658 0 
1110 1 -22.832 -6.48642 0 
1111 1 -22.2357 -7.43722 0 
1112 1 -21.7037 -6.4468 0 
1113 1 -21.1067 -7.39661 0 
1114 1 -20.5746 -6.40576 0 
1115 1 -19.9769 -7.35467 0 
1116 1 -19.4448 -6.3633 0 
1117 1 -18.8463 -7.31109 0 
1119 1 -17.7149 -7.26576 0 
1121 1 -16.5825 -7.21872 0 
1123 1 -15.4489 -7.1696 0 
1125 1 -14.3138 -7.11808 0 
1127 1 -13.1782 -7.06437 0 
1129 1 -12.0435 -7.00904 0 
1131 1 -10.9094 -6.9511 0 
1133 1 -9.77479 -6.88775 0 
1135 1 -8.64142 -6.81933 0 
1137 1 -7.51059 -6.74713 0 
1139 1 -6.38281 -6.67477 0 
1141 1 -5.25552 -6.60238 0 
1143 1 -4.12759 -6.5303 0 
1145 1 -2.9993 -6.45363 0 
1046 1 -2.40508 -7.40111 0 
1147 1 -1.87422 -6.37019 0 
1048 1 -1.27972 -7.32238 0 
1050 1 -0.158614 -7.24294 0 
1052 1 0.958921 -7.17207 0 
1054 1 2.0771 -7.11881 0 
1056 1 3.19898 -7.08093 0 
1058 1 4.32441 -7.04703 0 
1060 1 5.45238 -7.0193 0 
1062 1 6.57942 -6.99942 0 
1064 1 7.70519 -6.98742 0 
1066 1 8.83215 -6.97652 0 
1068 1 9.96293 -6.96397 0 
1070 1 11.0973 -6.95097 0 
1072 1 12.2335 -6.94053 0 
1074 1 13.3692 -6.9323 0 
1076 1 14.504 -6.92534 0 
1078 1 15.639 -6.91954 0 
1080 1 16.7746 -6.91474 0 
1082 1 17.9103 -6.91044 0 
1084 1 19.0454 -6.90626 0 
1086 1 20.1799 -6.90214 0 
1088 1 21.3136 -6.89819 0 
1090 1 22.4468 -6.89459 0 
1092 1 23.5797 -6.89138 0 
1094 1 24.7123 -6.88853 0 
1096 2 25.8451 -6.88616 0 
1098 2 26.9784 -6.88422 0 
1100 2 28.1116 -6.88241 0 