ITEM: TIMESTEP
2400
ITEM: NUMBER OF ATOMS
2850
ITEM: BOX BOUNDS ff ff pp
-42.092 42.092
-42.092 42.092
-0.280613 0.280613
ITEM: ATOMS id type xu yu zu 
1 2 -27.3398 -28.9988 0 
3 2 -26.2107 -28.9642 0 
5 2 -25.0816 -28.9291 0 
7 2 -23.9525 -28.8936 0 
9 2 -22.8235 -28.8577 0 
11 2 -21.6944 -28.8213 0 
13 2 -20.5655 -28.7844 0 
15 2 -19.4366 -28.7472 0 
17 2 -18.3079 -28.7095 0 
19 2 -17.1793 -28.6715 0 
21 2 -16.0508 -28.6331 0 
23 2 -14.9226 -28.5944 0 
25 2 -13.7947 -28.5554 0 
27 2 -12.667 -28.5163 0 
29 2 -11.5396 -28.477 0 
31 2 -10.4126 -28.4376 0 
33 2 -9.28592 -28.3982 0 
35 2 -8.15967 -28.3589 0 
37 2 -7.03386 -28.3198 0 
39 2 -5.90848 -28.281 0 
2 2 -26.7941 -28.0086 0 
4 2 -25.6649 -27.9736 0 
6 2 -24.5357 -27.9381 0 
8 2 -23.4065 -27.902 0 
10 2 -22.2773 -27.8656 0 
12 2 -21.1481 -27.8286 0 
14 2 -20.019 -27.7912 0 
16 2 -18.89 -27.7533 0 
18 2 -17.7611 -27.715 0 
20 2 -16.6324 -27.6763 0 
22 2 -15.5039 -27.6373 0 
24 2 -14.3755 -27.5979 0 
26 2 -13.2475 -27.5582 0 
28 2 -12.1197 -27.5183 0 
30 2 -10.9923 -27.4783 0 
32 2 -9.86522 -27.4382 0 
34 2 -8.73856 -27.3981 0 
36 2 -7.61233 -27.3581 0 
38 2 -6.48656 -27.3184 0 
40 2 -5.36126 -27.2789 0 
41 2 -4.78357 -28.2426 0 
42 2 -4.23645 -27.24 0 
43 2 -3.65912 -28.2046 0 
44 2 -3.11213 -27.2015 0 
45 2 -2.53513 -28.1673 0 
46 2 -1.98828 -27.1638 0 
47 2 -1.41159 -28.1307 0 
48 2 -0.8649 -27.1269 0 
49 2 -0.288464 -28.095 0 
51 2 0.834263 -28.0602 0 
53 2 1.95663 -28.0264 0 
55 2 3.07869 -27.9937 0 
57 2 4.20048 -27.9622 0 
59 2 5.32207 -27.9319 0 
61 2 6.4435 -27.9029 0 
63 2 7.56483 -27.8752 0 
65 2 8.68613 -27.8488 0 
67 2 9.80743 -27.8237 0 
69 2 10.9288 -27.8 0 
71 2 12.0503 -27.7775 0 
73 2 13.1719 -27.7563 0 
75 2 14.2937 -27.7363 0 
77 2 15.4157 -27.7174 0 
79 2 16.538 -27.6997 0 
81 2 17.6605 -27.683 0 
83 2 18.7832 -27.6673 0 
85 2 19.9063 -27.6526 0 
87 2 21.0296 -27.6388 0 
89 2 22.1532 -27.6258 0 
91 2 23.2771 -27.6136 0 
93 2 24.4012 -27.6022 0 
95 2 25.5256 -27.5914 0 
97 2 26.6503 -27.5812 0 
99 2 27.7752 -27.5717 0 
101 2 -27.378 -27.0533 0 
103 2 -26.2487 -27.0183 0 
102 2 -26.833 -26.0633 0 
105 2 -25.1194 -26.9828 0 
104 2 -25.7037 -26.0278 0 
107 2 -23.9901 -26.9468 0 
106 2 -24.5742 -25.9918 0 
109 2 -22.8607 -26.9102 0 
108 1 -23.4439 -25.9543 0 
111 2 -21.7314 -26.8732 0 
113 2 -20.6021 -26.8357 0 
115 2 -19.4729 -26.7977 0 
117 2 -18.3437 -26.7591 0 
119 2 -17.2147 -26.7202 0 
121 2 -16.0858 -26.6808 0 
123 2 -14.9572 -26.641 0 
125 2 -13.8287 -26.6009 0 
127 2 -12.7006 -26.5605 0 
129 2 -11.5727 -26.5198 0 
131 2 -10.4452 -26.479 0 
133 2 -9.31813 -26.4382 0 
135 2 -8.19146 -26.3973 0 
137 2 -7.06526 -26.3566 0 
139 2 -5.93954 -26.3162 0 
141 2 -4.81433 -26.2762 0 
143 2 -3.68963 -26.2366 0 
145 2 -2.56545 -26.1977 0 
147 2 -1.44177 -26.1596 0 
50 2 0.258046 -27.0909 0 
149 2 -0.318563 -26.1224 0 
52 2 1.38059 -27.056 0 
151 2 0.804196 -26.0862 0 
54 2 2.50279 -27.0222 0 
153 2 1.92656 -26.0512 0 
56 2 3.62468 -26.9896 0 
155 2 3.04857 -26.0174 0 
58 2 4.74633 -26.9582 0 
157 2 4.1703 -25.9849 0 
60 2 5.86779 -26.9282 0 
159 2 5.2918 -25.9538 0 
62 2 6.98913 -26.8996 0 
64 2 8.11041 -26.8723 0 
66 2 9.23169 -26.8465 0 
68 2 10.353 -26.822 0 
70 2 11.4745 -26.7989 0 
72 2 12.596 -26.7771 0 
74 2 13.7178 -26.7566 0 
76 2 14.8398 -26.7373 0 
78 2 15.962 -26.7192 0 
80 2 17.0845 -26.7023 0 
82 2 18.2073 -26.6863 0 
84 2 19.3304 -26.6714 0 
86 2 20.4538 -26.6575 0 
88 2 21.5774 -26.6444 0 
90 2 22.7014 -26.6321 0 
92 2 23.8256 -26.6206 0 
94 2 24.9501 -26.6098 0 
96 2 26.0749 -26.5996 0 
98 2 27.2 -26.5901 0 
100 2 28.3253 -26.5811 0 
201 2 -27.4179 -25.1085 0 
203 2 -26.2885 -25.0731 0 
205 2 -25.159 -25.0372 0 
207 2 -24.0295 -25.0007 0 
209 1 -22.8991 -24.9619 0 
110 1 -22.314 -25.9171 0 
211 1 -21.7691 -24.9243 0 
112 1 -21.1842 -25.8795 0 
213 1 -20.6393 -24.8849 0 
114 1 -20.0551 -25.8407 0 
215 1 -19.5103 -24.8454 0 
116 1 -18.9264 -25.8017 0 
217 1 -18.3816 -24.8061 0 
118 1 -17.7973 -25.7624 0 
120 1 -16.6684 -25.7225 0 
122 1 -15.5405 -25.6826 0 
124 1 -14.4119 -25.6428 0 
126 1 -13.2836 -25.6013 0 
128 1 -12.1557 -25.5605 0 
130 1 -11.0276 -25.5186 0 
132 1 -9.90088 -25.4769 0 
134 1 -8.77498 -25.4349 0 
136 1 -7.64834 -25.3937 0 
138 1 -6.52235 -25.3526 0 
140 1 -5.39651 -25.3125 0 
142 1 -4.27212 -25.2709 0 
144 1 -3.14908 -25.2314 0 
146 1 -2.02518 -25.1927 0 
148 1 -0.901461 -25.1545 0 
150 1 0.221848 -25.1162 0 
152 1 1.34462 -25.0804 0 
154 1 2.46687 -25.0455 0 
156 1 3.58869 -25.0125 0 
158 1 4.7107 -24.9803 0 
160 1 5.83248 -24.9502 0 
161 2 6.41316 -25.9242 0 
162 1 6.95435 -24.9211 0 
163 2 7.53443 -25.896 0 
164 1 8.07623 -24.8934 0 
165 2 8.65568 -25.8693 0 
167 2 9.77697 -25.844 0 
166 1 9.19819 -24.8669 0 
169 2 10.8984 -25.8202 0 
168 1 10.32 -24.8429 0 
171 2 12.0199 -25.7978 0 
170 1 11.4419 -24.8193 0 
173 2 13.1416 -25.7768 0 
175 2 14.2636 -25.7571 0 
177 2 15.3858 -25.7386 0 
179 2 16.5083 -25.7213 0 
181 2 17.6311 -25.7052 0 
183 2 18.7543 -25.6901 0 
185 2 19.8777 -25.6759 0 
187 2 21.0014 -25.6627 0 
189 2 22.1254 -25.6504 0 
191 2 23.2498 -25.6388 0 
193 2 24.3744 -25.628 0 
195 2 25.4993 -25.6179 0 
197 2 26.6245 -25.6084 0 
199 2 27.75 -25.5994 0 
202 2 -26.8739 -24.1187 0 
204 2 -25.7444 -24.0828 0 
206 2 -24.6148 -24.0464 0 
208 1 -23.4846 -24.0086 0 
210 1 -22.3541 -23.9694 0 
212 1 -21.2239 -23.9304 0 
214 1 -20.0939 -23.8897 0 
216 1 -18.9651 -23.8494 0 
219 1 -17.2519 -24.7655 0 
218 1 -17.8361 -23.8101 0 
221 1 -16.1237 -24.7238 0 
220 1 -16.7073 -23.7664 0 
222 1 -15.579 -23.7258 0 
223 1 -14.9951 -24.6845 0 
224 1 -14.4508 -23.6844 0 
225 1 -13.8669 -24.6423 0 
227 1 -12.739 -24.6004 0 
229 1 -11.6111 -24.5595 0 
231 1 -10.4832 -24.516 0 
233 1 -9.35706 -24.4736 0 
235 1 -8.23093 -24.4325 0 
237 1 -7.10539 -24.3901 0 
239 1 -5.97987 -24.3495 0 
241 1 -4.85488 -24.307 0 
243 1 -3.72989 -24.2651 0 
245 1 -2.60548 -24.2251 0 
247 1 -1.48234 -24.1857 0 
249 1 -0.360157 -24.1479 0 
251 1 0.762987 -24.1102 0 
253 1 1.885 -24.0745 0 
255 1 3.00743 -24.0402 0 
257 1 4.13017 -24.0075 0 
259 1 5.25242 -23.9748 0 
261 1 6.37426 -23.9458 0 
263 1 7.4964 -23.9183 0 
265 1 8.61915 -23.891 0 
267 1 9.7417 -23.8654 0 
269 1 10.8639 -23.8415 0 
271 1 11.9865 -23.8199 0 
172 1 12.564 -24.7982 0 
273 1 13.1088 -23.799 0 
174 1 13.686 -24.7782 0 
275 1 14.2314 -23.7801 0 
176 1 14.8088 -24.7591 0 
277 1 15.3544 -23.7617 0 
178 1 15.9316 -24.7419 0 
279 1 16.4777 -23.7446 0 
180 1 17.0541 -24.7246 0 
281 1 17.6011 -23.7289 0 
182 1 18.1771 -24.7098 0 
283 1 18.7249 -23.7144 0 
184 1 19.3009 -24.6943 0 
285 1 19.8498 -23.7005 0 
186 1 20.4252 -24.6815 0 
287 1 20.974 -23.6881 0 
188 1 21.5493 -24.6694 0 
289 1 22.0984 -23.6766 0 
190 1 22.6734 -24.6579 0 
291 1 23.223 -23.6652 0 
192 1 23.7981 -24.6465 0 
293 1 24.3478 -23.6542 0 
194 1 24.9235 -24.6364 0 
295 2 25.4729 -23.6443 0 
196 2 26.0488 -24.6264 0 
198 2 27.1745 -24.6176 0 
200 2 28.3003 -24.6093 0 
301 2 -27.4598 -23.1644 0 
303 2 -26.3303 -23.1287 0 
305 2 -25.2007 -23.0924 0 
307 2 -24.071 -23.0555 0 
309 1 -22.9403 -23.0161 0 
311 1 -21.8097 -22.9764 0 
313 1 -20.6795 -22.935 0 
315 1 -19.5503 -22.8938 0 
317 1 -18.4213 -22.8539 0 
319 1 -17.2929 -22.8112 0 
321 1 -16.1634 -22.7682 0 
323 1 -15.0354 -22.727 0 
226 1 -13.3225 -23.6412 0 
325 1 -13.9075 -22.6842 0 
327 1 -12.7787 -22.642 0 
228 1 -12.1944 -23.5999 0 
329 1 -11.6516 -22.5981 0 
230 1 -11.0677 -23.5571 0 
331 1 -10.5255 -22.554 0 
232 1 -9.9407 -23.5128 0 
333 1 -9.39749 -22.5107 0 
234 1 -8.81364 -23.4715 0 
236 1 -7.68746 -23.4289 0 
238 1 -6.56107 -23.3868 0 
240 1 -5.43648 -23.3439 0 
242 1 -4.31236 -23.3004 0 
244 1 -3.18838 -23.2589 0 
246 1 -2.06484 -23.2178 0 
248 1 -0.941399 -23.1791 0 
250 1 0.181738 -23.1414 0 
252 1 1.30475 -23.1035 0 
254 1 2.42703 -23.0685 0 
256 1 3.54911 -23.0347 0 
258 1 4.67109 -23.0015 0 
260 1 5.79405 -22.9708 0 
262 1 6.91687 -22.942 0 
264 1 8.03962 -22.9156 0 
266 1 9.16243 -22.8886 0 
268 1 10.2851 -22.864 0 
270 1 11.4079 -22.8411 0 
272 1 12.5302 -22.8201 0 
274 1 13.6533 -22.8007 0 
276 1 14.7759 -22.7816 0 
278 1 15.8997 -22.7649 0 
280 1 17.0237 -22.7478 0 
282 1 18.1483 -22.7338 0 
284 1 19.2728 -22.7204 0 
286 1 20.3975 -22.7073 0 
288 1 21.5221 -22.6957 0 
290 1 22.6468 -22.6835 0 
292 1 23.7714 -22.6717 0 
294 1 24.8966 -22.6622 0 
297 2 26.5987 -23.6355 0 
296 2 26.0228 -22.6533 0 
299 2 27.7248 -23.6273 0 
298 2 27.149 -22.6452 0 
300 2 28.2755 -22.6376 0 
302 2 -26.9167 -22.1747 0 
304 2 -25.7871 -22.1385 0 
306 2 -24.6574 -22.1018 0 
308 1 -23.527 -22.0633 0 
310 1 -22.3965 -22.0234 0 
312 1 -21.2664 -21.9821 0 
314 1 -20.1365 -21.9394 0 
316 1 -19.0076 -21.8983 0 
318 1 -17.8795 -21.856 0 
320 1 -16.7505 -21.8134 0 
322 1 -15.6208 -21.7699 0 
324 1 -14.4928 -21.7274 0 
326 1 -13.3646 -21.6854 0 
328 1 -12.2372 -21.6409 0 
330 1 -11.1103 -21.5956 0 
332 1 -9.98277 -21.5521 0 
334 1 -8.85609 -21.5059 0 
335 1 -8.2713 -22.4671 0 
336 1 -7.72996 -21.4629 0 
337 1 -7.14543 -22.425 0 
338 1 -6.60442 -21.4195 0 
339 1 -6.01971 -22.3812 0 
340 1 -5.4785 -21.3738 0 
341 1 -4.89521 -22.3367 0 
343 1 -3.7705 -22.2937 0 
345 1 -2.64678 -22.251 0 
347 1 -1.52308 -22.2117 0 
349 1 -0.400343 -22.1725 0 
351 1 0.722686 -22.1334 0 
353 1 1.84577 -22.0972 0 
355 1 2.96806 -22.0622 0 
357 1 4.09025 -22.0284 0 
359 1 5.21334 -21.9968 0 
361 1 6.33618 -21.9667 0 
363 1 7.45927 -21.9389 0 
365 1 8.58145 -21.9118 0 
367 1 9.70441 -21.8867 0 
369 1 10.8275 -21.8629 0 
371 1 11.9509 -21.8406 0 
373 1 13.0743 -21.8214 0 
375 1 14.197 -21.8013 0 
377 1 15.3208 -21.7842 0 
379 1 16.4447 -21.7674 0 
381 1 17.5701 -21.7529 0 
383 1 18.6957 -21.7392 0 
385 1 19.8203 -21.7267 0 
387 1 20.9449 -21.7143 0 
389 1 22.0698 -21.7029 0 
391 1 23.1952 -21.6908 0 
393 1 24.321 -21.68 0 
395 2 25.4466 -21.6709 0 
397 2 26.573 -21.6629 0 
399 2 27.6998 -21.6554 0 
401 2 -27.5037 -21.2208 0 
403 2 -26.3741 -21.1849 0 
402 2 -26.9617 -20.2313 0 
405 2 -25.2445 -21.1483 0 
404 2 -25.8321 -20.1949 0 
407 2 -24.1147 -21.111 0 
409 1 -22.9843 -21.071 0 
411 1 -21.8538 -21.0302 0 
413 1 -20.7237 -20.9869 0 
415 1 -19.5943 -20.944 0 
417 1 -18.4653 -20.9014 0 
419 1 -17.3362 -20.8584 0 
421 1 -16.2076 -20.8156 0 
423 1 -15.0781 -20.7708 0 
425 1 -13.9497 -20.7278 0 
427 1 -12.8228 -20.6841 0 
429 1 -11.6951 -20.6383 0 
431 1 -10.5671 -20.5936 0 
433 1 -9.44011 -20.5471 0 
435 1 -8.31294 -20.5016 0 
437 1 -7.1878 -20.4573 0 
439 1 -6.06233 -20.4126 0 
342 1 -4.35347 -21.3302 0 
441 1 -4.9365 -20.3669 0 
344 1 -3.22944 -21.2859 0 
443 1 -3.81246 -20.322 0 
346 1 -2.10471 -21.2445 0 
445 1 -2.68785 -20.279 0 
348 1 -0.982077 -21.2033 0 
447 1 -1.56455 -20.2354 0 
350 1 0.140242 -21.1644 0 
352 1 1.26365 -21.1266 0 
354 1 2.38645 -21.0907 0 
356 1 3.50903 -21.0558 0 
358 1 4.6317 -21.0231 0 
360 1 5.75463 -20.9913 0 
362 1 6.8777 -20.9634 0 
364 1 8.00054 -20.9354 0 
366 1 9.124 -20.9092 0 
368 1 10.2474 -20.8848 0 
370 1 11.3709 -20.8623 0 
372 1 12.4946 -20.8415 0 
374 1 13.6182 -20.8215 0 
376 1 14.7424 -20.8038 0 
378 1 15.8663 -20.7864 0 
380 1 16.9909 -20.7719 0 
382 1 18.1169 -20.7587 0 
384 1 19.2423 -20.7452 0 
386 1 20.3667 -20.7329 0 
388 1 21.4924 -20.7214 0 
390 1 22.6183 -20.7108 0 
392 1 23.7447 -20.6996 0 
394 1 24.8707 -20.689 0 
396 2 25.9969 -20.6804 0 
398 2 27.1238 -20.673 0 
400 2 28.251 -20.6661 0 
501 2 -27.5497 -19.2779 0 
503 2 -26.4202 -19.2417 0 
505 2 -25.2906 -19.2049 0 
406 2 -24.7023 -20.1579 0 
507 2 -24.1608 -19.1673 0 
408 1 -23.5721 -20.1183 0 
509 1 -23.0302 -19.1261 0 
410 1 -22.4417 -20.0782 0 
511 1 -21.9006 -19.0834 0 
412 1 -21.3119 -20.0354 0 
513 1 -20.7711 -19.0388 0 
414 1 -20.182 -19.9909 0 
416 1 -19.0524 -19.948 0 
418 1 -17.9229 -19.9044 0 
420 1 -16.7941 -19.8606 0 
422 1 -15.6657 -19.8173 0 
424 1 -14.5357 -19.7719 0 
426 1 -13.4078 -19.7265 0 
428 1 -12.2805 -19.682 0 
430 1 -11.1518 -19.6363 0 
432 1 -10.0248 -19.5891 0 
434 1 -8.89768 -19.5426 0 
436 1 -7.77145 -19.4958 0 
438 1 -6.64597 -19.4513 0 
440 1 -5.52033 -19.4056 0 
442 1 -4.395 -19.3582 0 
444 1 -3.27027 -19.3137 0 
446 1 -2.14713 -19.2684 0 
448 1 -1.02423 -19.227 0 
449 1 -0.441025 -20.1952 0 
450 1 0.098677 -19.1868 0 
451 1 0.681827 -20.1567 0 
452 1 1.221 -19.1475 0 
453 1 1.80338 -20.1188 0 
454 1 2.34362 -19.1111 0 
455 1 2.92535 -20.0836 0 
456 1 3.4666 -19.0761 0 
457 1 4.04851 -20.0499 0 
459 1 5.17255 -20.0177 0 
461 1 6.29742 -19.9876 0 
463 1 7.42104 -19.9594 0 
465 1 8.54477 -19.9321 0 
467 1 9.66821 -19.9065 0 
469 1 10.7916 -19.8835 0 
471 1 11.9157 -19.8617 0 
473 1 13.0396 -19.8415 0 
475 1 14.1638 -19.8231 0 
477 1 15.2883 -19.8065 0 
479 1 16.4131 -19.7907 0 
481 1 17.5387 -19.7775 0 
483 1 18.664 -19.7644 0 
485 1 19.7891 -19.7513 0 
487 1 20.9148 -19.7403 0 
489 1 22.0419 -19.729 0 
491 1 23.1683 -19.7189 0 
493 1 24.2943 -19.7078 0 
495 2 25.4205 -19.6978 0 
497 2 26.5477 -19.6905 0 
499 2 27.6751 -19.6838 0 
502 2 -27.0088 -18.2886 0 
504 2 -25.8793 -18.252 0 
506 2 -24.7497 -18.2147 0 
508 1 -23.6194 -18.1748 0 
510 1 -22.4893 -18.1318 0 
512 1 -21.3603 -18.0877 0 
514 1 -20.23 -18.0431 0 
515 1 -19.6409 -18.9948 0 
516 1 -19.0995 -17.9988 0 
517 1 -18.5109 -18.9516 0 
518 1 -17.9698 -17.9546 0 
519 1 -17.3808 -18.9065 0 
520 1 -16.8393 -17.9089 0 
521 1 -16.2521 -18.8626 0 
523 1 -15.1233 -18.8189 0 
525 1 -13.9947 -18.7716 0 
527 1 -12.8662 -18.7255 0 
529 1 -11.7379 -18.6808 0 
531 1 -10.6107 -18.632 0 
533 1 -9.48375 -18.5849 0 
535 1 -8.35678 -18.537 0 
537 1 -7.22976 -18.4903 0 
539 1 -6.10429 -18.4441 0 
541 1 -4.97984 -18.3965 0 
543 1 -3.85449 -18.349 0 
545 1 -2.73088 -18.3027 0 
547 1 -1.60687 -18.2591 0 
549 1 -0.483989 -18.2175 0 
551 1 0.639404 -18.1775 0 
553 1 1.7631 -18.1392 0 
555 1 2.8856 -18.103 0 
557 1 4.00853 -18.0687 0 
458 1 4.58991 -19.0436 0 
559 1 5.13205 -18.038 0 
460 1 5.71417 -19.0127 0 
561 1 6.25672 -18.0075 0 
462 1 6.83844 -18.9831 0 
563 1 7.38074 -17.9787 0 
464 1 7.96245 -18.9552 0 
565 1 8.50423 -17.951 0 
466 1 9.08649 -18.9284 0 
567 1 9.62833 -17.9261 0 
468 1 10.2106 -18.9038 0 
569 1 10.7537 -17.9019 0 
470 1 11.3343 -18.8826 0 
472 1 12.4591 -18.8616 0 
474 1 13.5841 -18.8428 0 
476 1 14.7095 -18.826 0 
478 1 15.8347 -18.8097 0 
480 1 16.9606 -18.7961 0 
482 1 18.0866 -18.7828 0 
484 1 19.2125 -18.7705 0 
486 1 20.3389 -18.7585 0 
488 1 21.465 -18.7474 0 
490 1 22.5917 -18.7363 0 
492 1 23.7184 -18.7261 0 
494 1 24.8447 -18.7159 0 
496 2 25.9714 -18.7078 0 
498 2 27.0991 -18.7012 0 
500 2 28.2271 -18.6951 0 
601 2 -27.5979 -17.3354 0 
603 2 -26.4686 -17.2992 0 
605 2 -25.3391 -17.2621 0 
607 2 -24.2094 -17.2244 0 
609 1 -23.0793 -17.1814 0 
611 1 -21.949 -17.1367 0 
613 1 -20.8193 -17.093 0 
615 1 -19.6887 -17.048 0 
617 1 -18.5589 -17.0021 0 
619 1 -17.429 -16.9573 0 
522 1 -15.7098 -17.8646 0 
621 1 -16.2985 -16.9115 0 
524 1 -14.5823 -17.8181 0 
623 1 -15.1698 -16.8637 0 
526 1 -13.4534 -17.7714 0 
625 1 -14.0407 -16.8176 0 
528 1 -12.324 -17.7249 0 
627 1 -12.9115 -16.7705 0 
530 1 -11.1971 -17.6762 0 
532 1 -10.0693 -17.6277 0 
534 1 -8.94212 -17.579 0 
536 1 -7.815 -17.5313 0 
538 1 -6.68883 -17.4831 0 
540 1 -5.56426 -17.4346 0 
542 1 -4.43905 -17.3868 0 
544 1 -3.31408 -17.3378 0 
546 1 -2.18985 -17.2929 0 
548 1 -1.06645 -17.2489 0 
550 1 0.0569162 -17.2077 0 
552 1 1.1798 -17.1681 0 
554 1 2.30338 -17.1299 0 
556 1 3.42649 -17.0951 0 
558 1 4.55049 -17.063 0 
560 1 5.67492 -17.0326 0 
562 1 6.79955 -17.0023 0 
564 1 7.92331 -16.9737 0 
566 1 9.04754 -16.9476 0 
568 1 10.1721 -16.9238 0 
571 1 11.8785 -17.8824 0 
570 1 11.2981 -16.9023 0 
573 1 13.0034 -17.8627 0 
572 1 12.4237 -16.8832 0 
575 1 14.1284 -17.8453 0 
574 1 13.5492 -16.8642 0 
577 1 15.2544 -17.8289 0 
576 1 14.6752 -16.8484 0 
579 1 16.3811 -17.8143 0 
578 1 15.8024 -16.8332 0 
581 1 17.5075 -17.8012 0 
580 1 16.9297 -16.8195 0 
583 1 18.6342 -17.7888 0 
582 1 18.0567 -16.8066 0 
585 1 19.761 -17.7767 0 
584 1 19.1834 -16.7945 0 
587 1 20.8878 -17.7651 0 
586 1 20.3101 -16.7833 0 
589 1 22.0142 -17.7541 0 
588 1 21.4367 -16.7722 0 
591 1 23.141 -17.7444 0 
590 1 22.5638 -16.7624 0 
593 1 24.2678 -17.7338 0 
592 1 23.691 -16.7525 0 
595 2 25.3948 -17.725 0 
594 1 24.819 -16.7432 0 
596 2 25.9465 -16.7357 0 
597 2 26.5229 -17.7186 0 
598 2 27.0751 -16.7299 0 
599 2 27.6512 -17.7126 0 
600 2 28.2039 -16.7246 0 
602 2 -27.0583 -16.3463 0 
604 2 -25.929 -16.3096 0 
606 2 -24.7995 -16.2721 0 
608 1 -23.6698 -16.2315 0 
610 1 -22.54 -16.1869 0 
612 1 -21.4092 -16.1424 0 
614 1 -20.279 -16.0984 0 
616 1 -19.1489 -16.0514 0 
618 1 -18.0189 -16.0055 0 
620 1 -16.8884 -15.96 0 
622 1 -15.7588 -15.9109 0 
624 1 -14.6288 -15.8638 0 
626 1 -13.4998 -15.8167 0 
628 1 -12.371 -15.7665 0 
629 1 -11.7835 -16.7201 0 
630 1 -11.2412 -15.7165 0 
631 1 -10.6556 -16.672 0 
632 1 -10.1134 -15.6657 0 
633 1 -9.52786 -16.6217 0 
634 1 -8.98551 -15.6153 0 
635 1 -8.40015 -16.5726 0 
637 1 -7.2737 -16.5237 0 
639 1 -6.14854 -16.4735 0 
641 1 -5.02289 -16.4248 0 
643 1 -3.89875 -16.3751 0 
645 1 -2.77439 -16.3273 0 
647 1 -1.65084 -16.2819 0 
649 1 -0.526969 -16.2385 0 
651 1 0.596809 -16.1962 0 
653 1 1.72067 -16.1578 0 
655 1 2.84491 -16.1214 0 
657 1 3.96868 -16.0877 0 
659 1 5.09153 -16.056 0 
661 1 6.21629 -16.026 0 
663 1 7.34152 -15.9963 0 
665 1 8.46642 -15.9693 0 
667 1 9.59116 -15.9447 0 
669 1 10.717 -15.9231 0 
671 1 11.8429 -15.9033 0 
673 1 12.9693 -15.8846 0 
675 1 14.0967 -15.8676 0 
677 1 15.2238 -15.8524 0 
679 1 16.3513 -15.8387 0 
681 1 17.4788 -15.8251 0 
683 1 18.6062 -15.8123 0 
685 1 19.7329 -15.8009 0 
687 1 20.8598 -15.7906 0 
689 1 21.9874 -15.7807 0 
691 1 23.1147 -15.7713 0 
693 1 24.2422 -15.7617 0 
695 2 25.3699 -15.7527 0 
697 2 26.4989 -15.7471 0 
699 2 27.6281 -15.742 0 
701 2 -27.6483 -15.3934 0 
703 2 -26.5193 -15.357 0 
705 2 -25.3901 -15.3199 0 
707 2 -24.2607 -15.282 0 
709 1 -23.1308 -15.2372 0 
711 1 -22.0004 -15.1925 0 
713 1 -20.8703 -15.1481 0 
715 1 -19.7403 -15.1023 0 
717 1 -18.6093 -15.0552 0 
719 1 -17.4784 -15.009 0 
721 1 -16.3491 -14.9606 0 
723 1 -15.2183 -14.9123 0 
725 1 -14.088 -14.8632 0 
727 1 -12.959 -14.8134 0 
729 1 -11.8289 -14.7638 0 
731 1 -10.6995 -14.7113 0 
733 1 -9.57085 -14.6592 0 
636 1 -7.85815 -15.5652 0 
735 1 -8.4433 -14.6085 0 
638 1 -6.73283 -15.5133 0 
737 1 -7.31781 -14.5548 0 
640 1 -5.6076 -15.4639 0 
739 1 -6.19208 -14.5034 0 
642 1 -4.48359 -15.4117 0 
644 1 -3.35901 -15.3633 0 
646 1 -2.23442 -15.3154 0 
648 1 -1.10993 -15.2701 0 
650 1 0.0144554 -15.2261 0 
652 1 1.13826 -15.1853 0 
654 1 2.26143 -15.1477 0 
656 1 3.38493 -15.1127 0 
658 1 4.5095 -15.0795 0 
660 1 5.63468 -15.0494 0 
662 1 6.7598 -15.0188 0 
664 1 7.88526 -14.9912 0 
666 1 9.01071 -14.9662 0 
668 1 10.1368 -14.9442 0 
670 1 11.2632 -14.923 0 
672 1 12.3897 -14.9043 0 
674 1 13.5164 -14.8875 0 
676 1 14.6436 -14.872 0 
678 1 15.7713 -14.858 0 
680 1 16.8993 -14.8439 0 
682 1 18.0274 -14.831 0 
684 1 19.1548 -14.8184 0 
686 1 20.2822 -14.8079 0 
688 1 21.4101 -14.7986 0 
690 1 22.5381 -14.7893 0 
692 1 23.6663 -14.7809 0 
694 1 24.7943 -14.771 0 
696 2 25.9226 -14.7642 0 
698 2 27.0521 -14.7592 0 
700 2 28.1818 -14.7547 0 
702 2 -27.11 -14.4044 0 
801 2 -27.7009 -13.4516 0 
704 2 -25.9811 -14.3676 0 
803 2 -26.5724 -13.4152 0 
706 2 -24.852 -14.3301 0 
805 2 -25.4437 -13.3781 0 
708 1 -23.7222 -14.2883 0 
807 2 -24.3146 -13.3401 0 
710 1 -22.5917 -14.2433 0 
809 1 -23.1843 -13.295 0 
712 1 -21.4613 -14.1983 0 
714 1 -20.3315 -14.1525 0 
716 1 -19.201 -14.1063 0 
718 1 -18.0696 -14.0594 0 
720 1 -16.9387 -14.0104 0 
722 1 -15.8081 -13.9622 0 
724 1 -14.6775 -13.9128 0 
726 1 -13.5466 -13.8613 0 
728 1 -12.4161 -13.8112 0 
730 1 -11.2872 -13.7585 0 
732 1 -10.1582 -13.705 0 
734 1 -9.0291 -13.6528 0 
736 1 -7.90233 -13.598 0 
738 1 -6.77506 -13.5443 0 
740 1 -5.6506 -13.4896 0 
741 1 -5.06782 -14.45 0 
742 1 -4.52632 -13.4374 0 
743 1 -3.94241 -14.3993 0 
744 1 -3.40221 -13.3855 0 
745 1 -2.81817 -14.3497 0 
746 1 -2.27756 -13.3353 0 
747 1 -1.69389 -14.3023 0 
749 1 -0.569252 -14.2572 0 
751 1 0.554609 -14.2139 0 
753 1 1.67845 -14.1742 0 
755 1 2.80194 -14.1375 0 
757 1 3.92623 -14.1044 0 
759 1 5.05114 -14.0724 0 
761 1 6.17595 -14.0424 0 
763 1 7.30196 -14.0137 0 
765 1 8.42826 -13.9873 0 
767 1 9.55513 -13.9647 0 
769 1 10.6809 -13.9435 0 
771 1 11.8081 -13.9236 0 
773 1 12.9357 -13.9063 0 
775 1 14.0639 -13.8911 0 
777 1 15.1916 -13.8766 0 
779 1 16.3193 -13.8637 0 
781 1 17.4483 -13.8495 0 
783 1 18.5763 -13.8364 0 
785 1 19.7044 -13.8254 0 
787 1 20.8323 -13.8159 0 
789 1 21.9607 -13.8069 0 
791 1 23.0896 -13.7992 0 
793 1 24.2178 -13.7899 0 
795 2 25.3462 -13.7811 0 
797 2 26.4761 -13.7764 0 
799 2 27.6062 -13.772 0 
802 2 -27.164 -12.4626 0 
804 2 -26.0357 -12.4259 0 
806 2 -24.9071 -12.3884 0 
808 1 -23.7771 -12.3467 0 
810 1 -22.6469 -12.3011 0 
811 1 -22.0537 -13.2495 0 
812 1 -21.5166 -12.2552 0 
813 1 -20.9233 -13.2036 0 
814 1 -20.3857 -12.2091 0 
815 1 -19.7926 -13.1569 0 
816 1 -19.2542 -12.161 0 
817 1 -18.662 -13.1102 0 
818 1 -18.1239 -12.1125 0 
819 1 -17.5313 -13.0615 0 
821 1 -16.3994 -13.0123 0 
823 1 -15.268 -12.963 0 
825 1 -14.1372 -12.9124 0 
827 1 -13.0052 -12.8608 0 
829 1 -11.8751 -12.8063 0 
831 1 -10.7455 -12.7523 0 
833 1 -9.61594 -12.6986 0 
835 1 -8.48883 -12.6424 0 
837 1 -7.36103 -12.588 0 
839 1 -6.23458 -12.5308 0 
841 1 -5.10882 -12.4758 0 
843 1 -3.98425 -12.4219 0 
845 1 -2.86004 -12.3696 0 
748 1 -1.15267 -13.2882 0 
847 1 -1.73564 -12.3194 0 
849 1 -0.612149 -12.2715 0 
750 1 -0.0284842 -13.2428 0 
851 1 0.511332 -12.2282 0 
752 1 1.09557 -13.2015 0 
853 1 1.63505 -12.1884 0 
754 1 2.21931 -13.1624 0 
756 1 3.34376 -13.1281 0 
758 1 4.46838 -13.0962 0 
760 1 5.59378 -13.065 0 
762 1 6.71925 -13.0367 0 
764 1 7.84526 -13.0095 0 
766 1 8.97278 -12.9853 0 
768 1 10.0995 -12.9626 0 
770 1 11.227 -12.9441 0 
772 1 12.3548 -12.9249 0 
774 1 13.483 -12.9098 0 
776 1 14.6115 -12.8952 0 
778 1 15.7403 -12.8813 0 
780 1 16.8688 -12.869 0 
782 1 17.9978 -12.8547 0 
784 1 19.1266 -12.8435 0 
786 1 20.2559 -12.8333 0 
788 1 21.3846 -12.8243 0 
790 1 22.5132 -12.8163 0 
792 1 23.642 -12.8082 0 
794 1 24.7709 -12.7995 0 
796 2 25.9 -12.7934 0 
798 2 27.0306 -12.7893 0 
800 2 28.1612 -12.7854 0 
901 2 -27.7557 -11.5099 0 
903 2 -26.6279 -11.4735 0 
905 2 -25.4997 -11.4364 0 
907 2 -24.3713 -11.3985 0 
909 1 -23.2408 -11.3531 0 
911 1 -22.1103 -11.3067 0 
913 1 -20.9795 -11.2611 0 
915 1 -19.849 -11.2143 0 
917 1 -18.718 -11.1655 0 
820 1 -16.9929 -12.0643 0 
919 1 -17.5863 -11.1167 0 
822 1 -15.8601 -12.0147 0 
921 1 -16.4547 -11.0682 0 
824 1 -14.7278 -11.963 0 
923 1 -15.3225 -11.0164 0 
826 1 -13.5962 -11.9126 0 
828 1 -12.4652 -11.857 0 
830 1 -11.3346 -11.8017 0 
832 1 -10.2049 -11.7468 0 
834 1 -9.07657 -11.6886 0 
836 1 -7.94771 -11.6326 0 
838 1 -6.82116 -11.5738 0 
840 1 -5.69509 -11.5161 0 
842 1 -4.56918 -11.4596 0 
844 1 -3.44425 -11.4042 0 
846 1 -2.32044 -11.3511 0 
848 1 -1.19712 -11.3007 0 
850 1 -0.0732843 -11.2562 0 
852 1 1.05103 -11.214 0 
855 1 2.75998 -12.1523 0 
854 1 2.17584 -11.1765 0 
857 1 3.88502 -12.1192 0 
856 1 3.30154 -11.1419 0 
859 1 5.01041 -12.0881 0 
858 1 4.42705 -11.1102 0 
861 1 6.13663 -12.0589 0 
860 1 5.55294 -11.0808 0 
863 1 7.26285 -12.0306 0 
862 1 6.6793 -11.0523 0 
865 1 8.39026 -12.0059 0 
864 1 7.80708 -11.0264 0 
867 1 9.51737 -11.9823 0 
869 1 10.6453 -11.9633 0 
871 1 11.7734 -11.9451 0 
873 1 12.9028 -11.9281 0 
875 1 14.0316 -11.9136 0 
877 1 15.1605 -11.8992 0 
879 1 16.2892 -11.8857 0 
881 1 17.4176 -11.8737 0 
883 1 18.547 -11.8616 0 
885 1 19.6766 -11.8514 0 
887 1 20.8063 -11.8418 0 
889 1 21.9358 -11.833 0 
891 1 23.0649 -11.8251 0 
893 1 24.1944 -11.8176 0 
895 2 25.3239 -11.8103 0 
897 2 26.4549 -11.8064 0 
899 2 27.586 -11.8028 0 
902 2 -27.2202 -10.5209 0 
904 2 -26.0925 -10.4842 0 
906 2 -24.9646 -10.4468 0 
908 1 -23.8351 -10.4053 0 
910 1 -22.7054 -10.3593 0 
912 1 -21.5747 -10.3134 0 
914 1 -20.444 -10.2667 0 
916 1 -19.314 -10.2198 0 
918 1 -18.1822 -10.1712 0 
920 1 -17.0499 -10.1211 0 
922 1 -15.9185 -10.0705 0 
924 1 -14.7862 -10.018 0 
925 1 -14.1895 -10.9637 0 
926 1 -13.6542 -9.96274 0 
927 1 -13.0587 -10.9097 0 
928 1 -12.522 -9.90779 0 
929 1 -11.9269 -10.8539 0 
930 1 -11.3899 -9.85 0 
931 1 -10.7958 -10.7969 0 
933 1 -9.6662 -10.7379 0 
935 1 -8.53605 -10.6802 0 
937 1 -7.40804 -10.6192 0 
939 1 -6.28061 -10.5578 0 
941 1 -5.15434 -10.4982 0 
943 1 -4.02987 -10.44 0 
945 1 -2.90599 -10.3847 0 
947 1 -1.78177 -10.3311 0 
949 1 -0.65687 -10.2829 0 
951 1 0.466602 -10.24 0 
953 1 1.5912 -10.2003 0 
955 1 2.71646 -10.1648 0 
957 1 3.84252 -10.1317 0 
959 1 4.96911 -10.1019 0 
961 1 6.09622 -10.0739 0 
963 1 7.22503 -10.047 0 
965 1 8.35297 -10.0222 0 
866 1 8.93533 -11.0023 0 
967 1 9.48201 -10.001 0 
868 1 10.0645 -10.9815 0 
969 1 10.6121 -9.98116 0 
870 1 11.1925 -10.9638 0 
971 1 11.7416 -9.96498 0 
872 1 12.3219 -10.9473 0 
973 1 12.8715 -9.94922 0 
874 1 13.4519 -10.9311 0 
975 1 14.0016 -9.93405 0 
876 1 14.5812 -10.9167 0 
977 1 15.1316 -9.91998 0 
878 1 15.7101 -10.9028 0 
979 1 16.2625 -9.90734 0 
880 1 16.8389 -10.8907 0 
981 1 17.392 -9.89624 0 
882 1 17.9678 -10.8794 0 
983 1 18.5217 -9.88605 0 
884 1 19.0978 -10.8689 0 
985 1 19.6526 -9.87689 0 
886 1 20.228 -10.8593 0 
987 1 20.7835 -9.8683 0 
888 1 21.3583 -10.8505 0 
890 1 22.4882 -10.8421 0 
989 1 21.9136 -9.85941 0 
892 1 23.6181 -10.8349 0 
991 1 23.0431 -9.85181 0 
894 1 24.7487 -10.8289 0 
993 1 24.1733 -9.84604 0 
896 2 25.8793 -10.8234 0 
995 2 25.3037 -9.84035 0 
898 2 27.0108 -10.8201 0 
997 2 26.4357 -9.83726 0 
900 2 28.1423 -10.817 0 
999 2 27.5677 -9.8344 0 
1001 2 -27.8125 -9.56805 0 
1003 2 -26.6854 -9.5318 0 
1005 2 -25.5581 -9.49477 0 
1007 2 -24.4305 -9.45693 0 
1009 1 -23.3011 -9.4117 0 
1011 1 -22.1714 -9.36647 0 
1013 1 -21.0407 -9.31954 0 
1015 1 -19.91 -9.27217 0 
1017 1 -18.7789 -9.22524 0 
1019 1 -17.6474 -9.17492 0 
1021 1 -16.5152 -9.12352 0 
1023 1 -15.3832 -9.07252 0 
1025 1 -14.2508 -9.01839 0 
1027 1 -13.1177 -8.96206 0 
1029 1 -11.9854 -8.90479 0 
932 1 -10.2587 -9.78913 0 
1031 1 -10.8538 -8.84341 0 
934 1 -9.12772 -9.73018 0 
1033 1 -9.72118 -8.78167 0 
936 1 -7.99879 -9.66796 0 
1035 1 -8.59093 -8.7181 0 
938 1 -6.87045 -9.60391 0 
940 1 -5.74244 -9.54039 0 
942 1 -4.61675 -9.47799 0 
944 1 -3.49141 -9.41859 0 
946 1 -2.36797 -9.3623 0 
948 1 -1.24366 -9.31187 0 
950 1 -0.119317 -9.26569 0 
952 1 1.00564 -9.22452 0 
954 1 2.13117 -9.1869 0 
956 1 3.25713 -9.15311 0 
958 1 4.38458 -9.12299 0 
960 1 5.51222 -9.09403 0 
962 1 6.64007 -9.06829 0 
964 1 7.76914 -9.04166 0 
966 1 8.89876 -9.01977 0 
968 1 10.0286 -9.00012 0 
970 1 11.1592 -8.98231 0 
972 1 12.2901 -8.96719 0 
974 1 13.4213 -8.95218 0 
976 1 14.5523 -8.93761 0 
978 1 15.6829 -8.92491 0 
980 1 16.8137 -8.9129 0 
982 1 17.9442 -8.90255 0 
984 1 19.0748 -8.89394 0 
986 1 20.2063 -8.88591 0 
988 1 21.3371 -8.877 0 
990 1 22.4672 -8.8688 0 
992 1 23.598 -8.86287 0 
994 1 24.7291 -8.85766 0 
996 2 25.8608 -8.85435 0 
998 2 26.9933 -8.85174 0 
1000 2 28.1257 -8.84931 0 
1002 2 -27.2783 -8.57905 0 
1101 2 -27.8711 -7.62598 0 
1004 2 -26.1516 -8.54247 0 
1103 2 -26.7449 -7.58983 0 
1006 2 -25.0246 -8.50509 0 
1105 2 -25.6186 -7.5529 0 
1008 1 -23.8962 -8.46344 0 
1107 2 -24.492 -7.51516 0 
1010 1 -22.7677 -8.41831 0 
1012 1 -21.6387 -8.37315 0 
1014 1 -20.5081 -8.32533 0 
1016 1 -19.3764 -8.27807 0 
1018 1 -18.2458 -8.22889 0 
1020 1 -17.1143 -8.17854 0 
1022 1 -15.9811 -8.12647 0 
1024 1 -14.8488 -8.07398 0 
1026 1 -13.7164 -8.01853 0 
1028 1 -12.5831 -7.96068 0 
1030 1 -11.4507 -7.89934 0 
1032 1 -10.3178 -7.83676 0 
1034 1 -9.18544 -7.77066 0 
1036 1 -8.05415 -7.70321 0 
1037 1 -7.46151 -8.65267 0 
1038 1 -6.92426 -7.63504 0 
1039 1 -6.33215 -8.58659 0 
1041 1 -5.20572 -8.51899 0 
1043 1 -4.08012 -8.45599 0 
1045 1 -2.95548 -8.39398 0 
1047 1 -1.83028 -8.34025 0 
1049 1 -0.705364 -8.29167 0 
1051 1 0.419455 -8.24869 0 
1053 1 1.54527 -8.2096 0 
1055 1 2.67171 -8.17388 0 
1057 1 3.79974 -8.14321 0 
1059 1 4.92828 -8.11407 0 
1061 1 6.05674 -8.08756 0 
1063 1 7.18536 -8.06187 0 
1065 1 8.31657 -8.03783 0 
1067 1 9.4474 -8.01873 0 
1069 1 10.579 -8.00062 0 
1071 1 11.7098 -7.98432 0 
1073 1 12.8408 -7.97018 0 
1075 1 13.9724 -7.95601 0 
1077 1 15.1043 -7.9428 0 
1079 1 16.2359 -7.93076 0 
1081 1 17.3674 -7.91969 0 
1083 1 18.499 -7.91053 0 
1085 1 19.6301 -7.90255 0 
1087 1 20.7611 -7.89395 0 
1089 1 21.8923 -7.88618 0 
1091 1 23.0234 -7.87985 0 
1093 1 24.1543 -7.87483 0 
1095 2 25.2861 -7.87134 0 
1097 2 26.419 -7.86899 0 
1099 2 27.5519 -7.8668 0 
1102 2 -27.3381 -6.63684 0 
1104 2 -26.2124 -6.60035 0 
1106 2 -25.0865 -6.56307 0 
1108 1 -23.9594 -6.52277 0 
1109 1 -23.363 -7.47054 0 
1110 1 -22.831 -6.47885 0 
1111 1 -22.2336 -7.42562 0 
1112 1 -21.7022 -6.43286 0 
1113 1 -21.1049 -7.37932 0 
1114 1 -20.5732 -6.38644 0 
1115 1 -19.9748 -7.33206 0 
1116 1 -19.4442 -6.33839 0 
1117 1 -18.8447 -7.28333 0 
1119 1 -17.7145 -7.23376 0 
1121 1 -16.5835 -7.18328 0 
1123 1 -15.4509 -7.13016 0 
1125 1 -14.3181 -7.07556 0 
1127 1 -13.1849 -7.01827 0 
1129 1 -12.0523 -6.95766 0 
1131 1 -10.9184 -6.89435 0 
1133 1 -9.7851 -6.82752 0 
1135 1 -8.65146 -6.75802 0 
1137 1 -7.51902 -6.6863 0 
1139 1 -6.38958 -6.61182 0 
1040 1 -5.79628 -7.56354 0 
1141 1 -5.26126 -6.53895 0 
1042 1 -4.66903 -7.49546 0 
1143 1 -4.13548 -6.4661 0 
1044 1 -3.5444 -7.42855 0 
1046 1 -2.41977 -7.36995 0 
1048 1 -1.29515 -7.31809 0 
1050 1 -0.169789 -7.27197 0 
1052 1 0.956968 -7.2321 0 
1054 1 2.08407 -7.19482 0 
1056 1 3.21231 -7.16304 0 
1058 1 4.34097 -7.13386 0 
1060 1 5.47069 -7.10619 0 
1062 1 6.60065 -7.08079 0 
1064 1 7.73218 -7.05828 0 
1066 1 8.86431 -7.03662 0 
1068 1 9.99643 -7.01933 0 
1070 1 11.1286 -7.00144 0 
1072 1 12.2603 -6.98722 0 
1074 1 13.3926 -6.97383 0 
1076 1 14.5252 -6.96087 0 
1078 1 15.6574 -6.9487 0 
1080 1 16.7892 -6.93701 0 
1082 1 17.9207 -6.92745 0 
1084 1 19.052 -6.91859 0 
1086 1 20.1836 -6.91033 0 
1088 1 21.316 -6.90344 0 
1090 1 22.4482 -6.89717 0 
1092 1 23.5805 -6.89206 0 
1094 1 24.7129 -6.88902 0 
1096 2 25.8451 -6.88616 0 
1098 2 26.9784 -6.88422 0 
1100 2 28.1116 -6.88241 0 
1201 2 -27.9311 -5.68349 0 
1203 2 -26.806 -5.64742 0 