ITEM: TIMESTEP
3700
ITEM: NUMBER OF ATOMS
2850
ITEM: BOX BOUNDS ff ff pp
-42.092 42.092
-42.092 42.092
-0.280613 0.280613
ITEM: ATOMS id type xu yu zu 
1 2 -27.3398 -28.9988 0 
3 2 -26.2107 -28.9642 0 
5 2 -25.0816 -28.9291 0 
7 2 -23.9525 -28.8936 0 
9 2 -22.8235 -28.8577 0 
11 2 -21.6944 -28.8213 0 
13 2 -20.5655 -28.7844 0 
15 2 -19.4366 -28.7472 0 
17 2 -18.3079 -28.7095 0 
19 2 -17.1793 -28.6715 0 
21 2 -16.0508 -28.6331 0 
23 2 -14.9226 -28.5944 0 
25 2 -13.7947 -28.5554 0 
27 2 -12.667 -28.5163 0 
29 2 -11.5396 -28.477 0 
31 2 -10.4126 -28.4376 0 
33 2 -9.28592 -28.3982 0 
35 2 -8.15967 -28.3589 0 
37 2 -7.03386 -28.3198 0 
39 2 -5.90848 -28.281 0 
2 2 -26.7941 -28.0086 0 
4 2 -25.6649 -27.9736 0 
6 2 -24.5357 -27.9381 0 
8 2 -23.4065 -27.902 0 
10 2 -22.2773 -27.8656 0 
12 2 -21.1481 -27.8286 0 
14 2 -20.019 -27.7912 0 
16 2 -18.89 -27.7533 0 
18 2 -17.7611 -27.715 0 
20 2 -16.6324 -27.6763 0 
22 2 -15.5039 -27.6373 0 
24 2 -14.3755 -27.5979 0 
26 2 -13.2475 -27.5582 0 
28 2 -12.1197 -27.5183 0 
30 2 -10.9923 -27.4783 0 
32 2 -9.86522 -27.4382 0 
34 2 -8.73856 -27.3981 0 
36 2 -7.61233 -27.3581 0 
38 2 -6.48656 -27.3184 0 
40 2 -5.36126 -27.2789 0 
41 2 -4.78357 -28.2426 0 
42 2 -4.23645 -27.24 0 
43 2 -3.65912 -28.2046 0 
44 2 -3.11213 -27.2015 0 
45 2 -2.53513 -28.1673 0 
46 2 -1.98828 -27.1638 0 
47 2 -1.41159 -28.1307 0 
48 2 -0.8649 -27.1269 0 
49 2 -0.288464 -28.095 0 
51 2 0.834263 -28.0602 0 
53 2 1.95663 -28.0264 0 
55 2 3.07869 -27.9937 0 
57 2 4.20048 -27.9622 0 
59 2 5.32207 -27.9319 0 
61 2 6.4435 -27.9029 0 
63 2 7.56483 -27.8752 0 
65 2 8.68613 -27.8488 0 
67 2 9.80743 -27.8237 0 
69 2 10.9288 -27.8 0 
71 2 12.0503 -27.7775 0 
73 2 13.1719 -27.7563 0 
75 2 14.2937 -27.7363 0 
77 2 15.4157 -27.7174 0 
79 2 16.538 -27.6997 0 
81 2 17.6605 -27.683 0 
83 2 18.7832 -27.6673 0 
85 2 19.9063 -27.6526 0 
87 2 21.0296 -27.6388 0 
89 2 22.1532 -27.6258 0 
91 2 23.2771 -27.6136 0 
93 2 24.4012 -27.6022 0 
95 2 25.5256 -27.5914 0 
97 2 26.6503 -27.5812 0 
99 2 27.7752 -27.5717 0 
101 2 -27.378 -27.0533 0 
103 2 -26.2487 -27.0183 0 
102 2 -26.833 -26.0633 0 
105 2 -25.1194 -26.9828 0 
104 2 -25.7037 -26.0278 0 
107 2 -23.9901 -26.9468 0 
106 2 -24.5742 -25.9918 0 
109 2 -22.8607 -26.9102 0 
108 1 -23.4443 -25.955 0 
111 2 -21.7314 -26.8732 0 
113 2 -20.6021 -26.8357 0 
115 2 -19.4729 -26.7977 0 
117 2 -18.3437 -26.7591 0 
119 2 -17.2147 -26.7202 0 
121 2 -16.0858 -26.6808 0 
123 2 -14.9572 -26.641 0 
125 2 -13.8287 -26.6009 0 
127 2 -12.7006 -26.5605 0 
129 2 -11.5727 -26.5198 0 
131 2 -10.4452 -26.479 0 
133 2 -9.31813 -26.4382 0 
135 2 -8.19146 -26.3973 0 
137 2 -7.06526 -26.3566 0 
139 2 -5.93954 -26.3162 0 
141 2 -4.81433 -26.2762 0 
143 2 -3.68963 -26.2366 0 
145 2 -2.56545 -26.1977 0 
147 2 -1.44177 -26.1596 0 
50 2 0.258046 -27.0909 0 
149 2 -0.318563 -26.1224 0 
52 2 1.38059 -27.056 0 
151 2 0.804196 -26.0862 0 
54 2 2.50279 -27.0222 0 
153 2 1.92656 -26.0512 0 
56 2 3.62468 -26.9896 0 
155 2 3.04857 -26.0174 0 
58 2 4.74633 -26.9582 0 
157 2 4.1703 -25.9849 0 
60 2 5.86779 -26.9282 0 
159 2 5.2918 -25.9538 0 
62 2 6.98913 -26.8996 0 
64 2 8.11041 -26.8723 0 
66 2 9.23169 -26.8465 0 
68 2 10.353 -26.822 0 
70 2 11.4745 -26.7989 0 
72 2 12.596 -26.7771 0 
74 2 13.7178 -26.7566 0 
76 2 14.8398 -26.7373 0 
78 2 15.962 -26.7192 0 
80 2 17.0845 -26.7023 0 
82 2 18.2073 -26.6863 0 
84 2 19.3304 -26.6714 0 
86 2 20.4538 -26.6575 0 
88 2 21.5774 -26.6444 0 
90 2 22.7014 -26.6321 0 
92 2 23.8256 -26.6206 0 
94 2 24.9501 -26.6098 0 
96 2 26.0749 -26.5996 0 
98 2 27.2 -26.5901 0 
100 2 28.3253 -26.5811 0 
201 2 -27.4179 -25.1085 0 
203 2 -26.2885 -25.0731 0 
205 2 -25.159 -25.0372 0 
207 2 -24.0295 -25.0007 0 
209 1 -22.899 -24.9631 0 
110 1 -22.3145 -25.9179 0 
211 1 -21.7693 -24.9248 0 
112 1 -21.1851 -25.8798 0 
213 1 -20.6395 -24.8861 0 
114 1 -20.0556 -25.8416 0 
215 1 -19.5097 -24.8472 0 
116 1 -18.926 -25.8027 0 
217 1 -18.3806 -24.807 0 
118 1 -17.797 -25.7631 0 
120 1 -16.6682 -25.7236 0 
122 1 -15.5393 -25.6834 0 
124 1 -14.4109 -25.6427 0 
126 1 -13.2826 -25.602 0 
128 1 -12.1546 -25.5608 0 
130 1 -11.027 -25.5193 0 
132 1 -9.89988 -25.4777 0 
134 1 -8.77321 -25.436 0 
136 1 -7.64695 -25.3949 0 
138 1 -6.52116 -25.3532 0 
140 1 -5.39602 -25.3126 0 
142 1 -4.27116 -25.2721 0 
144 1 -3.14684 -25.232 0 
146 1 -2.02304 -25.1926 0 
148 1 -0.899639 -25.1545 0 
150 1 0.223373 -25.1173 0 
152 1 1.346 -25.0812 0 
154 1 2.46827 -25.0465 0 
156 1 3.58997 -25.0128 0 
158 1 4.71182 -24.9811 0 
160 1 5.8336 -24.9505 0 
161 2 6.41316 -25.9242 0 
162 1 6.95523 -24.9216 0 
163 2 7.53443 -25.896 0 
164 1 8.07694 -24.8942 0 
165 2 8.65568 -25.8693 0 
167 2 9.77697 -25.844 0 
166 1 9.19869 -24.8682 0 
169 2 10.8984 -25.8202 0 
168 1 10.3205 -24.8436 0 
171 2 12.0199 -25.7978 0 
170 1 11.4425 -24.8205 0 
173 2 13.1416 -25.7768 0 
175 2 14.2636 -25.7571 0 
177 2 15.3858 -25.7386 0 
179 2 16.5083 -25.7213 0 
181 2 17.6311 -25.7052 0 
183 2 18.7543 -25.6901 0 
185 2 19.8777 -25.6759 0 
187 2 21.0014 -25.6627 0 
189 2 22.1254 -25.6504 0 
191 2 23.2498 -25.6388 0 
193 2 24.3744 -25.628 0 
195 2 25.4993 -25.6179 0 
197 2 26.6245 -25.6084 0 
199 2 27.75 -25.5994 0 
202 2 -26.8739 -24.1187 0 
204 2 -25.7444 -24.0828 0 
206 2 -24.6148 -24.0464 0 
208 1 -23.4844 -24.009 0 
210 1 -22.3541 -23.9703 0 
212 1 -21.224 -23.9313 0 
214 1 -20.094 -23.8921 0 
216 1 -18.9647 -23.8515 0 
219 1 -17.2512 -24.7669 0 
218 1 -17.8352 -23.8111 0 
221 1 -16.1221 -24.7266 0 
220 1 -16.7056 -23.7702 0 
222 1 -15.5766 -23.7284 0 
223 1 -14.9935 -24.6853 0 
224 1 -14.448 -23.687 0 
225 1 -13.865 -24.6441 0 
227 1 -12.7369 -24.6022 0 
229 1 -11.6093 -24.5601 0 
231 1 -10.4819 -24.5179 0 
233 1 -9.35494 -24.4754 0 
235 1 -8.22864 -24.4333 0 
237 1 -7.10276 -24.3912 0 
239 1 -5.97711 -24.3493 0 
241 1 -4.85215 -24.3081 0 
243 1 -3.7278 -24.2669 0 
245 1 -2.6041 -24.2264 0 
247 1 -1.4805 -24.1873 0 
249 1 -0.357379 -24.149 0 
251 1 0.765305 -24.1114 0 
253 1 1.88783 -24.0758 0 
255 1 3.01003 -24.0411 0 
257 1 4.13212 -24.0086 0 
259 1 5.25404 -23.9772 0 
261 1 6.37586 -23.9473 0 
263 1 7.49745 -23.9194 0 
265 1 8.61931 -23.8927 0 
267 1 9.74154 -23.8673 0 
269 1 10.864 -23.8435 0 
271 1 11.9864 -23.8209 0 
172 1 12.5645 -24.7988 0 
273 1 13.109 -23.8 0 
174 1 13.6866 -24.7785 0 
275 1 14.2318 -23.7808 0 
176 1 14.8092 -24.7597 0 
277 1 15.3549 -23.7626 0 
178 1 15.932 -24.7421 0 
279 1 16.4781 -23.7457 0 
180 1 17.0551 -24.7255 0 
281 1 17.6018 -23.7298 0 
182 1 18.1785 -24.7098 0 
283 1 18.7255 -23.7149 0 
184 1 19.302 -24.6955 0 
285 1 19.8494 -23.7015 0 
186 1 20.4258 -24.6821 0 
287 1 20.9738 -23.6887 0 
188 1 21.5499 -24.6697 0 
289 1 22.0983 -23.6766 0 
190 1 22.6741 -24.6577 0 
291 1 23.2231 -23.6652 0 
192 1 23.7987 -24.6464 0 
293 1 24.3482 -23.6545 0 
194 1 24.9237 -24.6362 0 
295 2 25.4729 -23.6443 0 
196 2 26.0488 -24.6264 0 
198 2 27.1745 -24.6176 0 
200 2 28.3003 -24.6093 0 
301 2 -27.4598 -23.1644 0 
303 2 -26.3303 -23.1287 0 
305 2 -25.2007 -23.0924 0 
307 2 -24.071 -23.0555 0 
309 1 -22.9403 -23.0166 0 
311 1 -21.8099 -22.9772 0 
313 1 -20.6793 -22.9378 0 
315 1 -19.5496 -22.8968 0 
317 1 -18.4198 -22.8558 0 
319 1 -17.2903 -22.8147 0 
321 1 -16.1609 -22.7725 0 
323 1 -15.0317 -22.7303 0 
226 1 -13.3197 -23.6447 0 
325 1 -13.9032 -22.6878 0 
327 1 -12.7749 -22.6443 0 
228 1 -12.1918 -23.6016 0 
329 1 -11.6471 -22.6006 0 
230 1 -11.0642 -23.5589 0 
331 1 -10.52 -22.5567 0 
232 1 -9.93717 -23.5156 0 
333 1 -9.39333 -22.5125 0 
234 1 -8.81073 -23.4723 0 
236 1 -7.68482 -23.4296 0 
238 1 -6.55914 -23.3871 0 
240 1 -5.43399 -23.3447 0 
242 1 -4.30933 -23.3025 0 
244 1 -3.18533 -23.2608 0 
246 1 -2.0619 -23.2206 0 
248 1 -0.938826 -23.1811 0 
250 1 0.18413 -23.1424 0 
252 1 1.30707 -23.1054 0 
254 1 2.42939 -23.0701 0 
256 1 3.55165 -23.0362 0 
258 1 4.67386 -23.0039 0 
260 1 5.79594 -22.9733 0 
262 1 6.91811 -22.9442 0 
264 1 8.04021 -22.9171 0 
266 1 9.16251 -22.8912 0 
268 1 10.2851 -22.8667 0 
270 1 11.408 -22.8435 0 
272 1 12.531 -22.8217 0 
274 1 13.6541 -22.8018 0 
276 1 14.7773 -22.7834 0 
278 1 15.9008 -22.7657 0 
280 1 17.0248 -22.7498 0 
282 1 18.1488 -22.7344 0 
284 1 19.2729 -22.7206 0 
286 1 20.3974 -22.7077 0 
288 1 21.5223 -22.6954 0 
290 1 22.6471 -22.6839 0 
292 1 23.7722 -22.6731 0 
294 1 24.8974 -22.6625 0 
297 2 26.5987 -23.6355 0 
296 2 26.0228 -22.6533 0 
299 2 27.7248 -23.6273 0 
298 2 27.149 -22.6452 0 
300 2 28.2755 -22.6376 0 
302 2 -26.9167 -22.1747 0 
304 2 -25.7871 -22.1385 0 
306 2 -24.6574 -22.1018 0 
308 1 -23.527 -22.0636 0 
310 1 -22.3963 -22.0238 0 
312 1 -21.2656 -21.9841 0 
314 1 -20.1354 -21.9429 0 
316 1 -19.0053 -21.9016 0 
318 1 -17.8754 -21.8597 0 
320 1 -16.7458 -21.8174 0 
322 1 -15.6162 -21.7746 0 
324 1 -14.4872 -21.7313 0 
326 1 -13.3588 -21.6876 0 
328 1 -12.2308 -21.6432 0 
330 1 -11.1032 -21.5985 0 
332 1 -9.97611 -21.5535 0 
334 1 -8.84951 -21.5087 0 
335 1 -8.26686 -22.4685 0 
336 1 -7.72325 -21.4643 0 
337 1 -7.14102 -22.4254 0 
338 1 -6.59785 -21.42 0 
339 1 -6.01576 -22.382 0 
340 1 -5.47305 -21.3756 0 
341 1 -4.89093 -22.3386 0 
343 1 -3.76668 -22.296 0 
345 1 -2.64279 -22.2542 0 
347 1 -1.51948 -22.2135 0 
349 1 -0.396459 -22.1739 0 
351 1 0.726486 -22.1357 0 
353 1 1.84899 -22.099 0 
355 1 2.9712 -22.0642 0 
357 1 4.09346 -22.031 0 
359 1 5.21595 -21.9992 0 
361 1 6.33828 -21.9695 0 
363 1 7.46065 -21.9411 0 
365 1 8.58311 -21.9148 0 
367 1 9.70584 -21.8897 0 
369 1 10.8289 -21.8661 0 
371 1 11.952 -21.8437 0 
373 1 13.0754 -21.8231 0 
375 1 14.1989 -21.8042 0 
377 1 15.3227 -21.7862 0 
379 1 16.4468 -21.7696 0 
381 1 17.5711 -21.7541 0 
383 1 18.6958 -21.7396 0 
385 1 19.8203 -21.7267 0 
387 1 20.9452 -21.7143 0 
389 1 22.0704 -21.7023 0 
391 1 23.1956 -21.6915 0 
393 1 24.3212 -21.6808 0 
395 2 25.4466 -21.6709 0 
397 2 26.573 -21.6629 0 
399 2 27.6998 -21.6554 0 
401 2 -27.5037 -21.2208 0 
403 2 -26.3741 -21.1849 0 
402 2 -26.9617 -20.2313 0 
405 2 -25.2445 -21.1483 0 
404 2 -25.8321 -20.1949 0 
407 2 -24.1147 -21.111 0 
409 1 -22.9837 -21.0713 0 
411 1 -21.8527 -21.031 0 
413 1 -20.7222 -20.9898 0 
415 1 -19.5916 -20.9481 0 
417 1 -18.4615 -20.9059 0 
419 1 -17.3316 -20.8631 0 
421 1 -16.2017 -20.82 0 
423 1 -15.0722 -20.7759 0 
425 1 -13.9434 -20.7315 0 
427 1 -12.8151 -20.6869 0 
429 1 -11.6873 -20.6413 0 
431 1 -10.5596 -20.5956 0 
433 1 -9.43249 -20.5497 0 
435 1 -8.30601 -20.5042 0 
437 1 -7.18013 -20.4586 0 
439 1 -6.05505 -20.4131 0 
342 1 -4.34837 -21.3316 0 
441 1 -4.93028 -20.3683 0 
344 1 -3.22438 -21.2889 0 
443 1 -3.80592 -20.3238 0 
346 1 -2.10084 -21.2467 0 
445 1 -2.68222 -20.2806 0 
348 1 -0.97769 -21.2057 0 
447 1 -1.55881 -20.2382 0 
350 1 0.145183 -21.1666 0 
352 1 1.26785 -21.1285 0 
354 1 2.3905 -21.0925 0 
356 1 3.51307 -21.0581 0 
358 1 4.63551 -21.0256 0 
360 1 5.75822 -20.9948 0 
362 1 6.88086 -20.9657 0 
364 1 8.0036 -20.9384 0 
366 1 9.12644 -20.9126 0 
368 1 10.2495 -20.8885 0 
370 1 11.3728 -20.8657 0 
372 1 12.4964 -20.8444 0 
374 1 13.6203 -20.8247 0 
376 1 14.7443 -20.8068 0 
378 1 15.8687 -20.7894 0 
380 1 16.9932 -20.7737 0 
382 1 18.1179 -20.7592 0 
384 1 19.2429 -20.7455 0 
386 1 20.368 -20.7332 0 
388 1 21.4933 -20.7212 0 
390 1 22.6191 -20.7098 0 
392 1 23.7449 -20.6993 0 
394 1 24.8708 -20.6889 0 
396 2 25.9969 -20.6804 0 
398 2 27.1238 -20.673 0 
400 2 28.251 -20.6661 0 
501 2 -27.5497 -19.2779 0 
503 2 -26.4202 -19.2417 0 
505 2 -25.2906 -19.2049 0 
406 2 -24.7023 -20.1579 0 
507 2 -24.1608 -19.1673 0 
408 1 -23.5715 -20.1191 0 
509 1 -23.0295 -19.1268 0 
410 1 -22.4406 -20.0785 0 
511 1 -21.8984 -19.0852 0 
412 1 -21.3099 -20.0372 0 
513 1 -20.7675 -19.0431 0 
414 1 -20.1791 -19.9953 0 
416 1 -19.0485 -19.9527 0 
418 1 -17.9183 -19.9095 0 
420 1 -16.7882 -19.8661 0 
422 1 -15.6585 -19.8216 0 
424 1 -14.5291 -19.7766 0 
426 1 -13.4001 -19.7312 0 
428 1 -12.272 -19.6849 0 
430 1 -11.1439 -19.6386 0 
432 1 -10.0162 -19.5918 0 
434 1 -8.88936 -19.545 0 
436 1 -7.76301 -19.4983 0 
438 1 -6.63737 -19.4516 0 
440 1 -5.51228 -19.4056 0 
442 1 -4.38798 -19.3598 0 
444 1 -3.26403 -19.3151 0 
446 1 -2.14034 -19.2717 0 
448 1 -1.01709 -19.229 0 
449 1 -0.435905 -20.1975 0 
450 1 0.10577 -19.1886 0 
451 1 0.686654 -20.1586 0 
452 1 1.22857 -19.1503 0 
453 1 1.8095 -20.1211 0 
454 1 2.35122 -19.1133 0 
455 1 2.9321 -20.0857 0 
456 1 3.47394 -19.0785 0 
457 1 4.0548 -20.0518 0 
459 1 5.17757 -20.0203 0 
461 1 6.30045 -19.9904 0 
463 1 7.42342 -19.9621 0 
465 1 8.54648 -19.9359 0 
467 1 9.66974 -19.9108 0 
469 1 10.793 -19.8876 0 
471 1 11.9169 -19.8659 0 
473 1 13.0411 -19.8454 0 
475 1 14.1657 -19.8268 0 
477 1 15.2902 -19.8095 0 
479 1 16.4152 -19.7932 0 
481 1 17.5401 -19.7784 0 
483 1 18.6651 -19.7647 0 
485 1 19.7905 -19.7519 0 
487 1 20.9161 -19.74 0 
489 1 22.042 -19.7284 0 
491 1 23.168 -19.7176 0 
493 1 24.2941 -19.7074 0 
495 2 25.4205 -19.6978 0 
497 2 26.5477 -19.6905 0 
499 2 27.6751 -19.6838 0 
502 2 -27.0088 -18.2886 0 
504 2 -25.8793 -18.252 0 
506 2 -24.7497 -18.2147 0 
508 1 -23.6189 -18.1754 0 
510 1 -22.4879 -18.1341 0 
512 1 -21.3568 -18.0916 0 
514 1 -20.2258 -18.0487 0 
515 1 -19.6366 -19.0002 0 
516 1 -19.0948 -18.0046 0 
517 1 -18.506 -18.9567 0 
518 1 -17.9638 -17.9607 0 
519 1 -17.3755 -18.9129 0 
520 1 -16.8334 -17.9156 0 
521 1 -16.2453 -18.8681 0 
523 1 -15.1155 -18.8225 0 
525 1 -13.9861 -18.7766 0 
527 1 -12.8575 -18.7294 0 
529 1 -11.729 -18.6824 0 
531 1 -10.6009 -18.635 0 
533 1 -9.47351 -18.5869 0 
535 1 -8.34677 -18.5392 0 
537 1 -7.22089 -18.4913 0 
539 1 -6.09531 -18.4441 0 
541 1 -4.97046 -18.3968 0 
543 1 -3.84635 -18.3505 0 
545 1 -2.72246 -18.3057 0 
547 1 -1.59906 -18.2617 0 
549 1 -0.475858 -18.2194 0 
551 1 0.647137 -18.1795 0 
553 1 1.76988 -18.1414 0 
555 1 2.89281 -18.1054 0 
557 1 4.01564 -18.0712 0 
458 1 4.59674 -19.0457 0 
559 1 5.13842 -18.0394 0 
460 1 5.71952 -19.0149 0 
561 1 6.26149 -18.0095 0 
462 1 6.84251 -18.9858 0 
563 1 7.38502 -17.9817 0 
464 1 7.96586 -18.9588 0 
565 1 8.50854 -17.9556 0 
466 1 9.08917 -18.9334 0 
567 1 9.6325 -17.9313 0 
468 1 10.213 -18.9091 0 
569 1 10.7572 -17.9086 0 
470 1 11.3372 -18.8875 0 
472 1 12.4617 -18.8665 0 
474 1 13.5866 -18.8471 0 
476 1 14.7115 -18.8293 0 
478 1 15.8367 -18.8129 0 
480 1 16.9621 -18.7976 0 
482 1 18.0874 -18.7836 0 
484 1 19.2129 -18.7707 0 
486 1 20.3388 -18.7586 0 
488 1 21.4649 -18.7471 0 
490 1 22.5912 -18.7361 0 
492 1 23.7177 -18.7257 0 
494 1 24.8445 -18.7161 0 
496 2 25.9714 -18.7078 0 
498 2 27.0991 -18.7012 0 
500 2 28.2271 -18.6951 0 
601 2 -27.5979 -17.3354 0 
603 2 -26.4686 -17.2992 0 
605 2 -25.3391 -17.2621 0 
607 2 -24.2094 -17.2244 0 
609 1 -23.078 -17.183 0 
611 1 -21.9468 -17.1408 0 
613 1 -20.8157 -17.0976 0 
615 1 -19.6845 -17.0537 0 
617 1 -18.5532 -17.0093 0 
619 1 -17.4226 -16.9639 0 
522 1 -15.7032 -17.8697 0 
621 1 -16.2919 -16.9178 0 
524 1 -14.5731 -17.823 0 
623 1 -15.1614 -16.8707 0 
526 1 -13.444 -17.7751 0 
625 1 -14.0316 -16.8221 0 
528 1 -12.3149 -17.7273 0 
627 1 -12.902 -16.7736 0 
530 1 -11.1866 -17.679 0 
532 1 -10.0587 -17.6303 0 
534 1 -8.93131 -17.5815 0 
536 1 -7.80474 -17.5322 0 
538 1 -6.67873 -17.4835 0 
540 1 -5.55338 -17.4349 0 
542 1 -4.42844 -17.3869 0 
544 1 -3.3039 -17.3406 0 
546 1 -2.18051 -17.2949 0 
548 1 -1.05751 -17.2511 0 
550 1 0.0656855 -17.2094 0 
552 1 1.18852 -17.1696 0 
554 1 2.31128 -17.1326 0 
556 1 3.43419 -17.0971 0 
558 1 4.55726 -17.0638 0 
560 1 5.6806 -17.0331 0 
562 1 6.80403 -17.0046 0 
564 1 7.9277 -16.9778 0 
566 1 9.05186 -16.9531 0 
568 1 10.1767 -16.9301 0 
571 1 11.8818 -17.8876 0 
570 1 11.3015 -16.9083 0 
573 1 13.0069 -17.8677 0 
572 1 12.4266 -16.8883 0 
575 1 14.1321 -17.8495 0 
574 1 13.5523 -16.8698 0 
577 1 15.2574 -17.8326 0 
576 1 14.6781 -16.8524 0 
579 1 16.3833 -17.8171 0 
578 1 15.8041 -16.8366 0 
581 1 17.5092 -17.8026 0 
580 1 16.9303 -16.8218 0 
583 1 18.6352 -17.7893 0 
582 1 18.0567 -16.808 0 
585 1 19.7614 -17.7772 0 
584 1 19.1833 -16.7957 0 
587 1 20.8878 -17.7655 0 
586 1 20.31 -16.784 0 
589 1 22.0144 -17.7545 0 
588 1 21.4371 -16.773 0 
591 1 23.1412 -17.7441 0 
590 1 22.5641 -16.7624 0 
593 1 24.268 -17.7341 0 
592 1 23.6911 -16.7524 0 
595 2 25.3948 -17.725 0 
594 1 24.8186 -16.743 0 
596 2 25.9465 -16.7357 0 
597 2 26.5229 -17.7186 0 
598 2 27.0751 -16.7299 0 
599 2 27.6512 -17.7126 0 
600 2 28.2039 -16.7246 0 
602 2 -27.0583 -16.3463 0 
604 2 -25.929 -16.3096 0 
606 2 -24.7995 -16.2721 0 
608 1 -23.6689 -16.2323 0 
610 1 -22.5378 -16.1902 0 
612 1 -21.4066 -16.1471 0 
614 1 -20.2751 -16.1032 0 
616 1 -19.1438 -16.0588 0 
618 1 -18.0128 -16.0132 0 
620 1 -16.8819 -15.9667 0 
622 1 -15.751 -15.9195 0 
624 1 -14.6204 -15.8705 0 
626 1 -13.4901 -15.8209 0 
628 1 -12.3606 -15.7708 0 
629 1 -11.773 -16.7241 0 
630 1 -11.2316 -15.7202 0 
631 1 -10.6446 -16.6747 0 
632 1 -10.1031 -15.6696 0 
633 1 -9.51663 -16.6249 0 
634 1 -8.97539 -15.6179 0 
635 1 -8.38944 -16.5744 0 
637 1 -7.26285 -16.5241 0 
639 1 -6.13731 -16.4741 0 
641 1 -5.01226 -16.4245 0 
643 1 -3.88736 -16.3767 0 
645 1 -2.76341 -16.3292 0 
647 1 -1.63997 -16.2833 0 
649 1 -0.516801 -16.2402 0 
651 1 0.606231 -16.1987 0 
653 1 1.72944 -16.1597 0 
655 1 2.85248 -16.1232 0 
657 1 3.97563 -16.0887 0 
659 1 5.09896 -16.0569 0 
661 1 6.22259 -16.0272 0 
663 1 7.34661 -16.0001 0 
665 1 8.47133 -15.9746 0 
667 1 9.59635 -15.9514 0 
669 1 10.7214 -15.9292 0 
671 1 11.8465 -15.9085 0 
673 1 12.9722 -15.8897 0 
675 1 14.0985 -15.8722 0 
677 1 15.2249 -15.8558 0 
679 1 16.3515 -15.8408 0 
681 1 17.4781 -15.8268 0 
683 1 18.6051 -15.8141 0 
685 1 19.7322 -15.8023 0 
687 1 20.8595 -15.7913 0 
689 1 21.987 -15.7806 0 
691 1 23.1144 -15.7706 0 
693 1 24.242 -15.7614 0 
695 2 25.3699 -15.7527 0 
697 2 26.4989 -15.7471 0 
699 2 27.6281 -15.742 0 
701 2 -27.6483 -15.3934 0 
703 2 -26.5193 -15.357 0 
705 2 -25.3901 -15.3199 0 
707 2 -24.2607 -15.282 0 
709 1 -23.1294 -15.2398 0 
711 1 -21.9982 -15.197 0 
713 1 -20.8668 -15.1534 0 
715 1 -19.7352 -15.1088 0 
717 1 -18.604 -15.0633 0 
719 1 -17.4726 -15.0165 0 
721 1 -16.3413 -14.9688 0 
723 1 -15.2104 -14.9199 0 
725 1 -14.0796 -14.8699 0 
727 1 -12.9492 -14.8188 0 
729 1 -11.8195 -14.7672 0 
731 1 -10.6902 -14.7155 0 
733 1 -9.56187 -14.6627 0 
636 1 -7.84815 -15.5661 0 
735 1 -8.43406 -14.6096 0 
638 1 -6.72162 -15.5144 0 
737 1 -7.307 -14.5566 0 
640 1 -5.59611 -15.4632 0 
739 1 -6.18089 -14.5035 0 
642 1 -4.47095 -15.4136 0 
644 1 -3.34677 -15.3643 0 
646 1 -2.22312 -15.3166 0 
648 1 -1.09942 -15.2712 0 
650 1 0.0235332 -15.2281 0 
652 1 1.14639 -15.1875 0 
654 1 2.26975 -15.1495 0 
656 1 3.39318 -15.1139 0 
658 1 4.51697 -15.0808 0 
660 1 5.64087 -15.0502 0 
662 1 6.76518 -15.0222 0 
664 1 7.88998 -14.9963 0 
666 1 9.01519 -14.972 0 
668 1 10.1404 -14.9497 0 
670 1 11.266 -14.9286 0 
672 1 12.3922 -14.9094 0 
674 1 13.5185 -14.8916 0 
676 1 14.6451 -14.8749 0 
678 1 15.7721 -14.8597 0 
680 1 16.8992 -14.8454 0 
682 1 18.0266 -14.8325 0 
684 1 19.1541 -14.8205 0 
686 1 20.2818 -14.8095 0 
688 1 21.4096 -14.7989 0 
690 1 22.5374 -14.7888 0 
692 1 23.6655 -14.7796 0 
694 1 24.7938 -14.7712 0 
696 2 25.9226 -14.7642 0 
698 2 27.0521 -14.7592 0 
700 2 28.1818 -14.7547 0 
702 2 -27.11 -14.4044 0 
801 2 -27.7009 -13.4516 0 
704 2 -25.9811 -14.3676 0 
803 2 -26.5724 -13.4152 0 
706 2 -24.852 -14.3301 0 
805 2 -25.4437 -13.3781 0 
708 1 -23.7214 -14.2897 0 
807 2 -24.3146 -13.3401 0 
710 1 -22.5906 -14.2472 0 
809 1 -23.1835 -13.2975 0 
712 1 -21.4594 -14.2037 0 
714 1 -20.3279 -14.1595 0 
716 1 -19.1964 -14.1139 0 
718 1 -18.0651 -14.0673 0 
720 1 -16.9335 -14.0194 0 
722 1 -15.802 -13.9701 0 
724 1 -14.6709 -13.92 0 
726 1 -13.5399 -13.8685 0 
728 1 -12.4093 -13.816 0 
730 1 -11.2791 -13.763 0 
732 1 -10.1498 -13.7091 0 
734 1 -9.02103 -13.6548 0 
736 1 -7.89337 -13.6002 0 
738 1 -6.76681 -13.5454 0 
740 1 -5.64102 -13.4911 0 
741 1 -5.0553 -14.4514 0 
742 1 -4.51586 -13.4374 0 
743 1 -3.93069 -14.4002 0 
744 1 -3.39118 -13.3857 0 
745 1 -2.80659 -14.3505 0 
746 1 -2.26722 -13.3358 0 
747 1 -1.68293 -14.3032 0 
749 1 -0.559606 -14.2578 0 
751 1 0.563383 -14.2153 0 
753 1 1.68667 -14.1762 0 
755 1 2.81041 -14.1393 0 
757 1 3.93449 -14.1051 0 
759 1 5.05868 -14.0733 0 
761 1 6.18335 -14.0443 0 
763 1 7.30816 -14.0177 0 
765 1 8.43343 -13.9927 0 
767 1 9.55906 -13.9697 0 
769 1 10.6851 -13.9487 0 
771 1 11.8117 -13.9291 0 
773 1 12.9384 -13.911 0 
775 1 14.0654 -13.8942 0 
777 1 15.193 -13.8786 0 
779 1 16.3205 -13.8641 0 
781 1 17.4482 -13.8508 0 
783 1 18.5759 -13.8387 0 
785 1 19.7041 -13.8277 0 
787 1 20.8322 -13.817 0 
789 1 21.9603 -13.8071 0 
791 1 23.0887 -13.7979 0 
793 1 24.2174 -13.7895 0 
795 2 25.3462 -13.7811 0 
797 2 26.4761 -13.7764 0 
799 2 27.6062 -13.772 0 
802 2 -27.164 -12.4626 0 
804 2 -26.0357 -12.4259 0 
806 2 -24.9071 -12.3884 0 
808 1 -23.777 -12.3483 0 
810 1 -22.6464 -12.3052 0 
811 1 -22.0526 -13.2544 0 
812 1 -21.5154 -12.2615 0 
813 1 -20.9213 -13.2104 0 
814 1 -20.3841 -12.2165 0 
815 1 -19.7899 -13.1651 0 
816 1 -19.2527 -12.1704 0 
817 1 -18.6583 -13.1185 0 
818 1 -18.121 -12.1228 0 
819 1 -17.5268 -13.0707 0 
821 1 -16.3953 -13.0218 0 
823 1 -15.2634 -12.9711 0 
825 1 -14.1319 -12.9195 0 
827 1 -13.0006 -12.8663 0 
829 1 -11.8699 -12.8125 0 
831 1 -10.7397 -12.7573 0 
833 1 -9.61005 -12.7019 0 
835 1 -8.48146 -12.6455 0 
837 1 -7.35388 -12.5889 0 
839 1 -6.22717 -12.5324 0 
841 1 -5.10161 -12.4765 0 
843 1 -3.97655 -12.4223 0 
845 1 -2.85245 -12.3696 0 
748 1 -1.14374 -13.2885 0 
847 1 -1.72865 -12.3199 0 
849 1 -0.605228 -12.273 0 
750 1 -0.0204107 -13.2438 0 
851 1 0.518386 -12.2301 0 
752 1 1.10319 -13.2029 0 
853 1 1.64216 -12.19 0 
754 1 2.22673 -13.1645 0 
756 1 3.35076 -13.1291 0 
758 1 4.4753 -13.0964 0 
760 1 5.60041 -13.0666 0 
762 1 6.72573 -13.0388 0 
764 1 7.85141 -13.0134 0 
766 1 8.97755 -12.9899 0 
768 1 10.104 -12.9684 0 
770 1 11.2308 -12.9485 0 
772 1 12.3579 -12.9305 0 
774 1 13.4854 -12.9133 0 
776 1 14.6132 -12.8973 0 
778 1 15.7412 -12.8825 0 
780 1 16.8695 -12.8692 0 
782 1 17.9976 -12.8568 0 
784 1 19.126 -12.8458 0 
786 1 20.2546 -12.835 0 
788 1 21.3834 -12.8252 0 
790 1 22.5123 -12.816 0 
792 1 23.6413 -12.8076 0 
794 1 24.7705 -12.7997 0 
796 2 25.9 -12.7934 0 
798 2 27.0306 -12.7893 0 
800 2 28.1612 -12.7854 0 
901 2 -27.7557 -11.5099 0 
903 2 -26.6279 -11.4735 0 
905 2 -25.4997 -11.4364 0 
907 2 -24.3713 -11.3985 0 
909 1 -23.2409 -11.3562 0 
911 1 -22.1102 -11.3129 0 
913 1 -20.9791 -11.2685 0 
915 1 -19.8478 -11.2225 0 
917 1 -18.7165 -11.1756 0 
820 1 -16.9892 -12.074 0 
919 1 -17.5848 -11.127 0 
822 1 -15.8574 -12.0238 0 
921 1 -16.4529 -11.0769 0 
824 1 -14.7255 -11.9717 0 
923 1 -15.321 -11.0253 0 
826 1 -13.5939 -11.9182 0 
828 1 -12.4624 -11.8635 0 
830 1 -11.3316 -11.8076 0 
832 1 -10.201 -11.7507 0 
834 1 -9.07141 -11.6927 0 
836 1 -7.9427 -11.6344 0 
838 1 -6.81495 -11.5759 0 
840 1 -5.6886 -11.5173 0 
842 1 -4.5632 -11.4605 0 
844 1 -3.43862 -11.4046 0 
846 1 -2.31449 -11.3522 0 
848 1 -1.19087 -11.3028 0 
850 1 -0.0672105 -11.2573 0 
852 1 1.05681 -11.2157 0 
855 1 2.76651 -12.1533 0 
854 1 2.18148 -11.1774 0 
857 1 3.89145 -12.1194 0 
856 1 3.30656 -11.1427 0 
859 1 5.01679 -12.0886 0 
858 1 4.43237 -11.1107 0 
861 1 6.14249 -12.06 0 
860 1 5.55843 -11.0812 0 
863 1 7.26881 -12.034 0 
862 1 6.68518 -11.0546 0 
865 1 8.39528 -12.01 0 
864 1 7.81232 -11.0298 0 
867 1 9.52231 -11.9882 0 
869 1 10.6497 -11.968 0 
871 1 11.7773 -11.9493 0 
873 1 12.9049 -11.9321 0 
875 1 14.0329 -11.916 0 
877 1 15.1613 -11.901 0 
879 1 16.29 -11.8875 0 
881 1 17.4188 -11.875 0 
883 1 18.5477 -11.8637 0 
885 1 19.6765 -11.853 0 
887 1 20.8058 -11.8431 0 
889 1 21.9353 -11.8342 0 
891 1 23.0649 -11.8256 0 
893 1 24.1945 -11.8179 0 
895 2 25.3239 -11.8103 0 
897 2 26.4549 -11.8064 0 
899 2 27.586 -11.8028 0 
902 2 -27.2202 -10.5209 0 
904 2 -26.0925 -10.4842 0 
906 2 -24.9646 -10.4468 0 
908 1 -23.8355 -10.407 0 
910 1 -22.7056 -10.3641 0 
912 1 -21.575 -10.3204 0 
914 1 -20.4441 -10.2751 0 
916 1 -19.3128 -10.2285 0 
918 1 -18.1815 -10.1805 0 
920 1 -17.0497 -10.1308 0 
922 1 -15.9176 -10.0792 0 
924 1 -14.7854 -10.026 0 
925 1 -14.1888 -10.9714 0 
926 1 -13.6527 -9.97067 0 
927 1 -13.0567 -10.9164 0 
928 1 -12.5201 -9.91348 0 
929 1 -11.9248 -10.8595 0 
930 1 -11.3877 -9.85475 0 
931 1 -10.7932 -10.8016 0 
933 1 -9.6627 -10.742 0 
935 1 -8.53304 -10.6819 0 
937 1 -7.40426 -10.6216 0 
939 1 -6.27687 -10.5604 0 
941 1 -5.15063 -10.5003 0 
943 1 -4.02585 -10.4415 0 
945 1 -2.90135 -10.3855 0 
947 1 -1.77733 -10.3334 0 
949 1 -0.653531 -10.285 0 
951 1 0.470371 -10.2414 0 
953 1 1.59513 -10.2017 0 
955 1 2.72049 -10.1653 0 
957 1 3.84666 -10.1329 0 
959 1 4.97345 -10.1026 0 
961 1 6.10073 -10.0752 0 
963 1 7.22834 -10.05 0 
965 1 8.35674 -10.0272 0 
866 1 8.93994 -11.0078 0 
967 1 9.48511 -10.0063 0 
868 1 10.0677 -10.9872 0 
969 1 10.614 -9.98697 0 
870 1 11.1958 -10.9681 0 
971 1 11.7431 -9.96921 0 
872 1 12.3242 -10.9505 0 
973 1 12.8723 -9.95275 0 
874 1 13.4527 -10.9344 0 
975 1 14.0016 -9.93756 0 
876 1 14.5816 -10.9194 0 
977 1 15.1313 -9.92373 0 
878 1 15.7108 -10.9056 0 
979 1 16.2612 -9.91108 0 
880 1 16.8401 -10.8931 0 
981 1 17.3911 -9.89934 0 
882 1 17.9694 -10.8816 0 
983 1 18.5212 -9.88893 0 
884 1 19.0989 -10.871 0 
985 1 19.6514 -9.87903 0 
886 1 20.2286 -10.8611 0 
987 1 20.7816 -9.87 0 
888 1 21.3585 -10.8521 0 
890 1 22.4885 -10.8439 0 
989 1 21.9121 -9.86203 0 
892 1 23.6188 -10.8361 0 
991 1 23.0427 -9.8544 0 
894 1 24.7489 -10.8287 0 
993 1 24.1732 -9.84717 0 
896 2 25.8793 -10.8234 0 
995 2 25.3037 -9.84035 0 
898 2 27.0108 -10.8201 0 
997 2 26.4357 -9.83726 0 
900 2 28.1423 -10.817 0 
999 2 27.5677 -9.8344 0 
1001 2 -27.8125 -9.56805 0 
1003 2 -26.6854 -9.5318 0 
1005 2 -25.5581 -9.49477 0 
1007 2 -24.4305 -9.45693 0 
1009 1 -23.3016 -9.4152 0 
1011 1 -22.1716 -9.37219 0 
1013 1 -21.0412 -9.32758 0 
1015 1 -19.9103 -9.28164 0 
1017 1 -18.7792 -9.234 0 
1019 1 -17.6481 -9.18522 0 
1021 1 -16.5162 -9.13437 0 
1023 1 -15.3837 -9.08134 0 
1025 1 -14.2509 -9.02643 0 
1027 1 -13.1179 -8.96927 0 
1029 1 -11.9848 -8.91003 0 
932 1 -10.2561 -9.79395 0 
1031 1 -10.8523 -8.84833 0 
934 1 -9.12503 -9.73212 0 
1033 1 -9.72014 -8.78531 0 
936 1 -7.99511 -9.66957 0 
1035 1 -8.58886 -8.72051 0 
938 1 -6.86696 -9.60578 0 
940 1 -5.73988 -9.54276 0 
942 1 -4.61415 -9.48023 0 
944 1 -3.4894 -9.42061 0 
946 1 -2.36526 -9.36512 0 
948 1 -1.24167 -9.31367 0 
950 1 -0.117315 -9.26728 0 
952 1 1.00781 -9.22608 0 
954 1 2.13348 -9.1882 0 
956 1 3.26007 -9.15447 0 
958 1 4.38723 -9.1239 0 
960 1 5.51534 -9.09609 0 
962 1 6.6439 -9.07024 0 
964 1 7.77295 -9.04692 0 
966 1 8.90231 -9.02517 0 
968 1 10.0318 -9.00586 0 
970 1 11.1614 -8.98766 0 
972 1 12.2913 -8.97107 0 
974 1 13.4212 -8.95573 0 
976 1 14.5515 -8.9416 0 
978 1 15.6819 -8.92906 0 
980 1 16.8126 -8.91722 0 
982 1 17.9433 -8.90654 0 
984 1 19.074 -8.89674 0 
986 1 20.2048 -8.88804 0 
988 1 21.3361 -8.88007 0 
990 1 22.4672 -8.87258 0 
992 1 23.598 -8.86537 0 
994 1 24.7293 -8.85887 0 
996 2 25.8608 -8.85435 0 
998 2 26.9933 -8.85174 0 
1000 2 28.1257 -8.84931 0 
1002 2 -27.2783 -8.57905 0 
1101 2 -27.8711 -7.62598 0 
1004 2 -26.1516 -8.54247 0 
1103 2 -26.7449 -7.58983 0 
1006 2 -25.0246 -8.50509 0 
1105 2 -25.6186 -7.5529 0 
1008 1 -23.8966 -8.46539 0 
1107 2 -24.492 -7.51516 0 
1010 1 -22.7678 -8.42351 0 
1012 1 -21.6383 -8.37978 0 
1014 1 -20.5084 -8.33482 0 
1016 1 -19.378 -8.28813 0 
1018 1 -18.2468 -8.23965 0 
1020 1 -17.1156 -8.18975 0 
1022 1 -15.984 -8.13757 0 
1024 1 -14.8513 -8.08327 0 
1026 1 -13.7182 -8.02636 0 
1028 1 -12.5847 -7.96735 0 
1030 1 -11.4512 -7.90523 0 
1032 1 -10.3178 -7.84083 0 
1034 1 -9.18537 -7.77445 0 
1036 1 -8.05439 -7.70558 0 
1037 1 -7.45924 -8.65395 0 
1038 1 -6.9245 -7.63598 0 
1039 1 -6.33071 -8.58765 0 
1041 1 -5.20419 -8.52162 0 
1043 1 -4.07895 -8.4576 0 
1045 1 -2.95459 -8.39762 0 
1047 1 -1.83101 -8.3425 0 
1049 1 -0.706557 -8.29369 0 
1051 1 0.418799 -8.25027 0 
1053 1 1.54494 -8.21112 0 
1055 1 2.67207 -8.17615 0 
1057 1 3.79989 -8.14483 0 
1059 1 4.9287 -8.11657 0 
1061 1 6.05813 -8.09061 0 
1063 1 7.18834 -8.06672 0 
1065 1 8.31843 -8.04436 0 
1067 1 9.44899 -8.02443 0 
1069 1 10.5793 -8.00602 0 
1071 1 11.7099 -7.98932 0 
1073 1 12.8407 -7.97384 0 
1075 1 13.9717 -7.95971 0 
1077 1 15.1029 -7.94694 0 
1079 1 16.234 -7.9352 0 
1081 1 17.3653 -7.92429 0 
1083 1 18.4968 -7.91444 0 
1085 1 19.6282 -7.90577 0 
1087 1 20.7595 -7.89818 0 
1089 1 21.8912 -7.89078 0 
1091 1 23.0229 -7.88344 0 
1093 1 24.1547 -7.87725 0 
1095 2 25.2861 -7.87134 0 
1097 2 26.419 -7.86899 0 
1099 2 27.5519 -7.8668 0 
1102 2 -27.3381 -6.63684 0 
1104 2 -26.2124 -6.60035 0 
1106 2 -25.0865 -6.56307 0 
1108 1 -23.9596 -6.52379 0 
1109 1 -23.364 -7.47398 0 
1110 1 -22.8321 -6.48251 0 
1111 1 -22.2353 -7.43154 0 
1112 1 -21.7041 -6.43956 0 
1113 1 -21.1061 -7.38741 0 
1114 1 -20.5755 -6.39493 0 
1115 1 -19.9766 -7.34182 0 
1116 1 -19.4463 -6.34865 0 
1117 1 -18.8466 -7.29468 0 
1119 1 -17.7159 -7.24501 0 
1121 1 -16.5851 -7.19363 0 
1123 1 -15.4533 -7.14056 0 
1125 1 -14.3207 -7.08454 0 
1127 1 -13.1873 -7.02596 0 
1129 1 -12.0534 -6.96424 0 
1131 1 -10.9194 -6.89949 0 
1133 1 -9.78528 -6.83172 0 
1135 1 -8.65251 -6.76081 0 
1137 1 -7.52095 -6.68817 0 
1139 1 -6.39128 -6.61406 0 
1040 1 -5.79659 -7.56587 0 
1141 1 -5.26403 -6.53993 0 
1042 1 -4.6706 -7.4973 0 
1143 1 -4.13879 -6.46912 0 
1044 1 -3.54578 -7.43215 0 
1046 1 -2.42185 -7.37193 0 
1048 1 -1.29743 -7.31993 0 
1050 1 -0.172144 -7.27412 0 
1052 1 0.954133 -7.2337 0 
1054 1 2.08209 -7.19796 0 
1056 1 3.21122 -7.16577 0 
1058 1 4.34108 -7.13683 0 
1060 1 5.4716 -7.11038 0 
1062 1 6.60241 -7.08658 0 
1064 1 7.73346 -7.06389 0 
1066 1 8.86498 -7.04344 0 
1068 1 9.99679 -7.02461 0 
1070 1 11.1284 -7.00743 0 
1072 1 12.2599 -6.99185 0 
1074 1 13.3919 -6.97763 0 
1076 1 14.5236 -6.96457 0 
1078 1 15.6554 -6.95294 0 
1080 1 16.7873 -6.94209 0 
1082 1 17.9194 -6.93219 0 
1084 1 19.0516 -6.92344 0 
1086 1 20.1836 -6.91559 0 
1088 1 21.3156 -6.90876 0 
1090 1 22.4477 -6.9019 0 
1092 1 23.5803 -6.89552 0 
1094 1 24.7127 -6.88985 0 
1096 2 25.8451 -6.88616 0 
1098 2 26.9784 -6.88422 0 
1100 2 28.1116 -6.88241 0 
1201 2 -27.9311 -5.68349 0 
1203 2 -26.806 -5.64742 0 