ITEM: TIMESTEP
1200
ITEM: NUMBER OF ATOMS
2850
ITEM: BOX BOUNDS ff ff pp
-42.092 42.092
-42.092 42.092
-0.280613 0.280613
ITEM: ATOMS id type xu yu zu 
1 2 -27.3398 -28.9988 0 
3 2 -26.2107 -28.9642 0 
5 2 -25.0816 -28.9291 0 
7 2 -23.9525 -28.8936 0 
9 2 -22.8235 -28.8577 0 
11 2 -21.6944 -28.8213 0 
13 2 -20.5655 -28.7844 0 
15 2 -19.4366 -28.7472 0 
17 2 -18.3079 -28.7095 0 
19 2 -17.1793 -28.6715 0 
21 2 -16.0508 -28.6331 0 
23 2 -14.9226 -28.5944 0 
25 2 -13.7947 -28.5554 0 
27 2 -12.667 -28.5163 0 
29 2 -11.5396 -28.477 0 
31 2 -10.4126 -28.4376 0 
33 2 -9.28592 -28.3982 0 
35 2 -8.15967 -28.3589 0 
37 2 -7.03386 -28.3198 0 
39 2 -5.90848 -28.281 0 
2 2 -26.7941 -28.0086 0 
4 2 -25.6649 -27.9736 0 
6 2 -24.5357 -27.9381 0 
8 2 -23.4065 -27.902 0 
10 2 -22.2773 -27.8656 0 
12 2 -21.1481 -27.8286 0 
14 2 -20.019 -27.7912 0 
16 2 -18.89 -27.7533 0 
18 2 -17.7611 -27.715 0 
20 2 -16.6324 -27.6763 0 
22 2 -15.5039 -27.6373 0 
24 2 -14.3755 -27.5979 0 
26 2 -13.2475 -27.5582 0 
28 2 -12.1197 -27.5183 0 
30 2 -10.9923 -27.4783 0 
32 2 -9.86522 -27.4382 0 
34 2 -8.73856 -27.3981 0 
36 2 -7.61233 -27.3581 0 
38 2 -6.48656 -27.3184 0 
40 2 -5.36126 -27.2789 0 
41 2 -4.78357 -28.2426 0 
42 2 -4.23645 -27.24 0 
43 2 -3.65912 -28.2046 0 
44 2 -3.11213 -27.2015 0 
45 2 -2.53513 -28.1673 0 
46 2 -1.98828 -27.1638 0 
47 2 -1.41159 -28.1307 0 
48 2 -0.8649 -27.1269 0 
49 2 -0.288464 -28.095 0 
51 2 0.834263 -28.0602 0 
53 2 1.95663 -28.0264 0 
55 2 3.07869 -27.9937 0 
57 2 4.20048 -27.9622 0 
59 2 5.32207 -27.9319 0 
61 2 6.4435 -27.9029 0 
63 2 7.56483 -27.8752 0 
65 2 8.68613 -27.8488 0 
67 2 9.80743 -27.8237 0 
69 2 10.9288 -27.8 0 
71 2 12.0503 -27.7775 0 
73 2 13.1719 -27.7563 0 
75 2 14.2937 -27.7363 0 
77 2 15.4157 -27.7174 0 
79 2 16.538 -27.6997 0 
81 2 17.6605 -27.683 0 
83 2 18.7832 -27.6673 0 
85 2 19.9063 -27.6526 0 
87 2 21.0296 -27.6388 0 
89 2 22.1532 -27.6258 0 
91 2 23.2771 -27.6136 0 
93 2 24.4012 -27.6022 0 
95 2 25.5256 -27.5914 0 
97 2 26.6503 -27.5812 0 
99 2 27.7752 -27.5717 0 
101 2 -27.378 -27.0533 0 
103 2 -26.2487 -27.0183 0 
102 2 -26.833 -26.0633 0 
105 2 -25.1194 -26.9828 0 
104 2 -25.7037 -26.0278 0 
107 2 -23.9901 -26.9468 0 
106 2 -24.5742 -25.9918 0 
109 2 -22.8607 -26.9102 0 
108 1 -23.4453 -25.9549 0 
111 2 -21.7314 -26.8732 0 
113 2 -20.6021 -26.8357 0 
115 2 -19.4729 -26.7977 0 
117 2 -18.3437 -26.7591 0 
119 2 -17.2147 -26.7202 0 
121 2 -16.0858 -26.6808 0 
123 2 -14.9572 -26.641 0 
125 2 -13.8287 -26.6009 0 
127 2 -12.7006 -26.5605 0 
129 2 -11.5727 -26.5198 0 
131 2 -10.4452 -26.479 0 
133 2 -9.31813 -26.4382 0 
135 2 -8.19146 -26.3973 0 
137 2 -7.06526 -26.3566 0 
139 2 -5.93954 -26.3162 0 
141 2 -4.81433 -26.2762 0 
143 2 -3.68963 -26.2366 0 
145 2 -2.56545 -26.1977 0 
147 2 -1.44177 -26.1596 0 
50 2 0.258046 -27.0909 0 
149 2 -0.318563 -26.1224 0 
52 2 1.38059 -27.056 0 
151 2 0.804196 -26.0862 0 
54 2 2.50279 -27.0222 0 
153 2 1.92656 -26.0512 0 
56 2 3.62468 -26.9896 0 
155 2 3.04857 -26.0174 0 
58 2 4.74633 -26.9582 0 
157 2 4.1703 -25.9849 0 
60 2 5.86779 -26.9282 0 
159 2 5.2918 -25.9538 0 
62 2 6.98913 -26.8996 0 
64 2 8.11041 -26.8723 0 
66 2 9.23169 -26.8465 0 
68 2 10.353 -26.822 0 
70 2 11.4745 -26.7989 0 
72 2 12.596 -26.7771 0 
74 2 13.7178 -26.7566 0 
76 2 14.8398 -26.7373 0 
78 2 15.962 -26.7192 0 
80 2 17.0845 -26.7023 0 
82 2 18.2073 -26.6863 0 
84 2 19.3304 -26.6714 0 
86 2 20.4538 -26.6575 0 
88 2 21.5774 -26.6444 0 
90 2 22.7014 -26.6321 0 
92 2 23.8256 -26.6206 0 
94 2 24.9501 -26.6098 0 
96 2 26.0749 -26.5996 0 
98 2 27.2 -26.5901 0 
100 2 28.3253 -26.5811 0 
201 2 -27.4179 -25.1085 0 
203 2 -26.2885 -25.0731 0 
205 2 -25.159 -25.0372 0 
207 2 -24.0295 -25.0007 0 
209 1 -22.9006 -24.962 0 
110 1 -22.3166 -25.9178 0 
211 1 -21.771 -24.9247 0 
112 1 -21.1863 -25.8799 0 
213 1 -20.6401 -24.8868 0 
114 1 -20.0555 -25.8418 0 
215 1 -19.5094 -24.8468 0 
116 1 -18.9256 -25.8021 0 
217 1 -18.3798 -24.8046 0 
118 1 -17.7965 -25.7616 0 
120 1 -16.6685 -25.7222 0 
122 1 -15.5412 -25.6828 0 
124 1 -14.4138 -25.643 0 
126 1 -13.2849 -25.6022 0 
128 1 -12.1555 -25.5612 0 
130 1 -11.0282 -25.5191 0 
132 1 -9.90183 -25.4774 0 
134 1 -8.77578 -25.436 0 
136 1 -7.64911 -25.395 0 
138 1 -6.5221 -25.3543 0 
140 1 -5.39602 -25.3141 0 
142 1 -4.27102 -25.2715 0 
144 1 -3.14646 -25.2296 0 
146 1 -2.02294 -25.19 0 
148 1 -0.900725 -25.1518 0 
150 1 0.221557 -25.1135 0 
152 1 1.34397 -25.0771 0 
154 1 2.4658 -25.0443 0 
156 1 3.58787 -25.0121 0 
158 1 4.71 -24.98 0 
160 1 5.83182 -24.9502 0 
161 2 6.41316 -25.9242 0 
162 1 6.95308 -24.922 0 
163 2 7.53443 -25.896 0 
164 1 8.07539 -24.894 0 
165 2 8.65568 -25.8693 0 
167 2 9.77697 -25.844 0 
166 1 9.19688 -24.8673 0 
169 2 10.8984 -25.8202 0 
168 1 10.3186 -24.8431 0 
171 2 12.0199 -25.7978 0 
170 1 11.4406 -24.8206 0 
173 2 13.1416 -25.7768 0 
175 2 14.2636 -25.7571 0 
177 2 15.3858 -25.7386 0 
179 2 16.5083 -25.7213 0 
181 2 17.6311 -25.7052 0 
183 2 18.7543 -25.6901 0 
185 2 19.8777 -25.6759 0 
187 2 21.0014 -25.6627 0 
189 2 22.1254 -25.6504 0 
191 2 23.2498 -25.6388 0 
193 2 24.3744 -25.628 0 
195 2 25.4993 -25.6179 0 
197 2 26.6245 -25.6084 0 
199 2 27.75 -25.5994 0 
202 2 -26.8739 -24.1187 0 
204 2 -25.7444 -24.0828 0 
206 2 -24.6148 -24.0464 0 
208 1 -23.4857 -24.0086 0 
210 1 -22.3545 -23.9696 0 
212 1 -21.2237 -23.9311 0 
214 1 -20.0939 -23.8921 0 
216 1 -18.9656 -23.8491 0 
219 1 -17.2512 -24.763 0 
218 1 -17.8368 -23.8061 0 
221 1 -16.1241 -24.7238 0 
220 1 -16.707 -23.7662 0 
222 1 -15.5775 -23.727 0 
223 1 -14.9968 -24.6848 0 
224 1 -14.4503 -23.6849 0 
225 1 -13.8691 -24.6438 0 
227 1 -12.7395 -24.6025 0 
229 1 -11.6111 -24.5599 0 
231 1 -10.4844 -24.5176 0 
233 1 -9.35844 -24.4753 0 
235 1 -8.23165 -24.4345 0 
237 1 -7.10391 -24.3936 0 
239 1 -5.97736 -24.3521 0 
241 1 -4.85282 -24.3082 0 
243 1 -3.72775 -24.2635 0 
245 1 -2.60251 -24.2217 0 
247 1 -1.47961 -24.1816 0 
249 1 -0.357382 -24.1435 0 
251 1 0.765427 -24.107 0 
253 1 1.88679 -24.0719 0 
255 1 3.00758 -24.0392 0 
257 1 4.12937 -24.0069 0 
259 1 5.25118 -23.9756 0 
261 1 6.37145 -23.9457 0 
263 1 7.49334 -23.9195 0 
265 1 8.6173 -23.8905 0 
267 1 9.73996 -23.8653 0 
269 1 10.8605 -23.842 0 
271 1 11.9808 -23.8195 0 
172 1 12.5628 -24.7972 0 
273 1 13.1045 -23.7969 0 
174 1 13.6849 -24.7766 0 
275 1 14.2301 -23.7784 0 
176 1 14.8077 -24.7569 0 
277 1 15.3545 -23.7575 0 
178 1 15.9281 -24.7397 0 
279 1 16.476 -23.7431 0 
180 1 17.0495 -24.7245 0 
281 1 17.598 -23.7296 0 
182 1 18.173 -24.7111 0 
283 1 18.7215 -23.7173 0 
184 1 19.2981 -24.6974 0 
285 1 19.8458 -23.7055 0 
186 1 20.4244 -24.6848 0 
287 1 20.9699 -23.6909 0 
188 1 21.5489 -24.6695 0 
289 1 22.0958 -23.6754 0 
190 1 22.672 -24.6579 0 
291 1 23.2226 -23.6672 0 
192 1 23.7976 -24.6485 0 
293 1 24.3486 -23.6578 0 
194 1 24.924 -24.6369 0 
295 2 25.4729 -23.6443 0 
196 2 26.0488 -24.6264 0 
198 2 27.1745 -24.6176 0 
200 2 28.3003 -24.6093 0 
301 2 -27.4598 -23.1644 0 
303 2 -26.3303 -23.1287 0 
305 2 -25.2007 -23.0924 0 
307 2 -24.071 -23.0555 0 
309 1 -22.941 -23.0175 0 
311 1 -21.8107 -22.9763 0 
313 1 -20.6804 -22.9367 0 
315 1 -19.5515 -22.8951 0 
317 1 -18.4213 -22.8518 0 
319 1 -17.2908 -22.8106 0 
321 1 -16.1613 -22.772 0 
323 1 -15.0327 -22.7287 0 
226 1 -13.322 -23.6439 0 
325 1 -13.9039 -22.6861 0 
327 1 -12.777 -22.6423 0 
228 1 -12.1942 -23.6008 0 
329 1 -11.6501 -22.6 0 
230 1 -11.0669 -23.5587 0 
331 1 -10.5223 -22.5569 0 
232 1 -9.94053 -23.5156 0 
333 1 -9.3938 -22.5147 0 
234 1 -8.81307 -23.4743 0 
236 1 -7.68442 -23.4337 0 
238 1 -6.55656 -23.3909 0 
240 1 -5.43098 -23.3463 0 
242 1 -4.30612 -23.3011 0 
244 1 -3.18115 -23.257 0 
246 1 -2.05827 -23.2139 0 
248 1 -0.934872 -23.1739 0 
250 1 0.188681 -23.1364 0 
252 1 1.3099 -23.0997 0 
254 1 2.4309 -23.0663 0 
256 1 3.55237 -23.033 0 
258 1 4.67289 -23.001 0 
260 1 5.79337 -22.9699 0 
262 1 6.91488 -22.9419 0 
264 1 8.036 -22.9158 0 
266 1 9.15873 -22.8893 0 
268 1 10.2819 -22.8625 0 
270 1 11.4044 -22.8383 0 
272 1 12.5279 -22.8189 0 
274 1 13.6534 -22.7997 0 
276 1 14.7768 -22.7805 0 
278 1 15.8994 -22.7615 0 
280 1 17.0208 -22.7471 0 
282 1 18.1445 -22.7348 0 
284 1 19.2693 -22.7227 0 
286 1 20.3926 -22.71 0 
288 1 21.5177 -22.696 0 
290 1 22.6449 -22.684 0 
292 1 23.7705 -22.675 0 
294 1 24.896 -22.6647 0 
297 2 26.5987 -23.6355 0 
296 2 26.0228 -22.6533 0 
299 2 27.7248 -23.6273 0 
298 2 27.149 -22.6452 0 
300 2 28.2755 -22.6376 0 
302 2 -26.9167 -22.1747 0 
304 2 -25.7871 -22.1385 0 
306 2 -24.6574 -22.1018 0 
308 1 -23.5302 -22.0656 0 
310 1 -22.4017 -22.0247 0 
312 1 -21.2701 -21.9832 0 
314 1 -20.1386 -21.9413 0 
316 1 -19.0075 -21.9001 0 
318 1 -17.8758 -21.8575 0 
320 1 -16.7446 -21.8164 0 
322 1 -15.6161 -21.7744 0 
324 1 -14.4876 -21.7306 0 
326 1 -13.3601 -21.6853 0 
328 1 -12.2331 -21.6412 0 
330 1 -11.1048 -21.5992 0 
332 1 -9.97579 -21.5568 0 
334 1 -8.84688 -21.5151 0 
335 1 -8.26582 -22.4744 0 
336 1 -7.71988 -21.4728 0 
337 1 -7.13807 -22.4315 0 
338 1 -6.59425 -21.4272 0 
339 1 -6.01072 -22.3859 0 
340 1 -5.46668 -21.3811 0 
341 1 -4.88492 -22.341 0 
343 1 -3.75934 -22.2966 0 
345 1 -2.63451 -22.2493 0 
347 1 -1.51024 -22.2063 0 
349 1 -0.387435 -22.1658 0 
351 1 0.733796 -22.127 0 
353 1 1.85566 -22.0933 0 
355 1 2.97775 -22.0601 0 
357 1 4.0996 -22.0252 0 
359 1 5.2201 -21.9938 0 
361 1 6.34064 -21.9642 0 
363 1 7.46232 -21.9367 0 
365 1 8.58394 -21.9123 0 
367 1 9.70588 -21.886 0 
369 1 10.8296 -21.8578 0 
371 1 11.9519 -21.8365 0 
373 1 13.0745 -21.8197 0 
375 1 14.1972 -21.8017 0 
377 1 15.3199 -21.7837 0 
379 1 16.4442 -21.7656 0 
381 1 17.5687 -21.7513 0 
383 1 18.6934 -21.7385 0 
385 1 19.8171 -21.7251 0 
387 1 20.9411 -21.715 0 
389 1 22.0687 -21.7035 0 
391 1 23.1955 -21.6911 0 
393 1 24.3202 -21.6811 0 
395 2 25.4466 -21.6709 0 
397 2 26.573 -21.6629 0 
399 2 27.6998 -21.6554 0 
401 2 -27.5037 -21.2208 0 
403 2 -26.3741 -21.1849 0 
402 2 -26.9617 -20.2313 0 
405 2 -25.2445 -21.1483 0 
404 2 -25.8321 -20.1949 0 
407 2 -24.1147 -21.111 0 
409 1 -22.9892 -21.073 0 
411 1 -21.8593 -21.0329 0 
413 1 -20.7262 -20.99 0 
415 1 -19.5937 -20.9477 0 
417 1 -18.4621 -20.9064 0 
419 1 -17.3303 -20.8635 0 
421 1 -16.2001 -20.8191 0 
423 1 -15.0718 -20.7746 0 
425 1 -13.9451 -20.7296 0 
427 1 -12.8179 -20.685 0 
429 1 -11.6888 -20.642 0 
431 1 -10.5594 -20.5991 0 
433 1 -9.4307 -20.5577 0 
435 1 -8.30403 -20.5146 0 
437 1 -7.178 -20.4677 0 
439 1 -6.05041 -20.4218 0 
342 1 -4.34023 -21.3356 0 
441 1 -4.92422 -20.3729 0 
344 1 -3.21576 -21.2874 0 
443 1 -3.79994 -20.3243 0 
346 1 -2.08961 -21.2401 0 
445 1 -2.67459 -20.2774 0 
348 1 -0.965356 -21.1963 0 
447 1 -1.54894 -20.2302 0 
350 1 0.156461 -21.1557 0 
352 1 1.27901 -21.1194 0 
354 1 2.40087 -21.0852 0 
356 1 3.52277 -21.0524 0 
358 1 4.64579 -21.0188 0 
360 1 5.76894 -20.986 0 
362 1 6.89146 -20.9564 0 
364 1 8.01251 -20.9302 0 
366 1 9.13253 -20.905 0 
368 1 10.2541 -20.881 0 
370 1 11.3763 -20.8543 0 
372 1 12.4975 -20.8365 0 
374 1 13.6189 -20.8196 0 
376 1 14.7412 -20.8033 0 
378 1 15.8651 -20.7869 0 
380 1 16.99 -20.7692 0 
382 1 18.1143 -20.7559 0 
384 1 19.2392 -20.742 0 
386 1 20.3646 -20.7296 0 
388 1 21.4909 -20.7232 0 
390 1 22.6188 -20.7117 0 
392 1 23.745 -20.6986 0 
394 1 24.8696 -20.6877 0 
396 2 25.9969 -20.6804 0 
398 2 27.1238 -20.673 0 
400 2 28.251 -20.6661 0 
501 2 -27.5497 -19.2779 0 
503 2 -26.4202 -19.2417 0 
505 2 -25.2906 -19.2049 0 
406 2 -24.7023 -20.1579 0 
507 2 -24.1608 -19.1673 0 
408 1 -23.5733 -20.1189 0 
509 1 -23.0316 -19.1274 0 
410 1 -22.4452 -20.0811 0 
511 1 -21.901 -19.0898 0 
412 1 -21.3145 -20.0411 0 
513 1 -20.7692 -19.0477 0 
414 1 -20.1816 -19.9972 0 
416 1 -19.0487 -19.9547 0 
418 1 -17.9177 -19.9117 0 
420 1 -16.7873 -19.8661 0 
422 1 -15.6577 -19.8191 0 
424 1 -14.5296 -19.7732 0 
426 1 -13.4023 -19.7295 0 
428 1 -12.274 -19.6862 0 
430 1 -11.1443 -19.6424 0 
432 1 -10.0155 -19.5988 0 
434 1 -8.88835 -19.5556 0 
436 1 -7.76067 -19.51 0 
438 1 -6.63299 -19.4616 0 
440 1 -5.50831 -19.4118 0 
442 1 -4.3839 -19.364 0 
444 1 -3.25794 -19.3169 0 
446 1 -2.13313 -19.2679 0 
448 1 -1.0085 -19.2202 0 
449 1 -0.425766 -20.1859 0 
450 1 0.115374 -19.1769 0 
451 1 0.697088 -20.1474 0 
452 1 1.23796 -19.1372 0 
453 1 1.82026 -20.1098 0 
454 1 2.36134 -19.1008 0 
455 1 2.943 -20.0758 0 
456 1 3.48475 -19.0646 0 
457 1 4.06507 -20.0429 0 
459 1 5.18975 -20.0102 0 
461 1 6.31559 -19.9785 0 
463 1 7.43782 -19.9485 0 
465 1 8.5576 -19.9208 0 
467 1 9.678 -19.8985 0 
469 1 10.7991 -19.8762 0 
471 1 11.9239 -19.8542 0 
473 1 13.0464 -19.8353 0 
475 1 14.1672 -19.8186 0 
477 1 15.2897 -19.8037 0 
479 1 16.4127 -19.7883 0 
481 1 17.5365 -19.773 0 
483 1 18.6593 -19.7612 0 
485 1 19.7846 -19.748 0 
487 1 20.9118 -19.738 0 
489 1 22.0384 -19.7306 0 
491 1 23.1648 -19.7198 0 
493 1 24.2927 -19.707 0 
495 2 25.4205 -19.6978 0 
497 2 26.5477 -19.6905 0 
499 2 27.6751 -19.6838 0 
502 2 -27.0088 -18.2886 0 
504 2 -25.8793 -18.252 0 
506 2 -24.7497 -18.2147 0 
508 1 -23.6202 -18.1762 0 
510 1 -22.4874 -18.1358 0 
512 1 -21.3565 -18.0959 0 
514 1 -20.2257 -18.0532 0 
515 1 -19.6366 -19.004 0 
516 1 -19.0954 -18.0074 0 
517 1 -18.5061 -18.9597 0 
518 1 -17.9653 -17.9627 0 
519 1 -17.3763 -18.9148 0 
520 1 -16.835 -17.9168 0 
521 1 -16.2463 -18.867 0 
523 1 -15.1156 -18.8196 0 
525 1 -13.9848 -18.7741 0 
527 1 -12.8548 -18.7299 0 
529 1 -11.7257 -18.6853 0 
531 1 -10.5966 -18.6404 0 
533 1 -9.46716 -18.5969 0 
535 1 -8.33951 -18.5519 0 
537 1 -7.2134 -18.5038 0 
539 1 -6.08821 -18.4533 0 
541 1 -4.96299 -18.4046 0 
543 1 -3.83724 -18.3564 0 
545 1 -2.7125 -18.3048 0 
547 1 -1.58802 -18.2561 0 
549 1 -0.465267 -18.2083 0 
551 1 0.657287 -18.1657 0 
553 1 1.78072 -18.1276 0 
555 1 2.90403 -18.0904 0 
557 1 4.02972 -18.0561 0 
458 1 4.60986 -19.0318 0 
559 1 5.15517 -18.0234 0 
460 1 5.73488 -19.0016 0 
561 1 6.27969 -17.9939 0 
462 1 6.85836 -18.9712 0 
563 1 7.40306 -17.9644 0 
464 1 7.98081 -18.9425 0 
565 1 8.52566 -17.9372 0 
466 1 9.10389 -18.9147 0 
567 1 9.64844 -17.9084 0 
468 1 10.2242 -18.8915 0 
569 1 10.7697 -17.8876 0 
470 1 11.3457 -18.8736 0 
472 1 12.4702 -18.8519 0 
474 1 13.5935 -18.8332 0 
476 1 14.7163 -18.8184 0 
478 1 15.8404 -18.8034 0 
480 1 16.9632 -18.7905 0 
482 1 18.0861 -18.7772 0 
484 1 19.2091 -18.7679 0 
486 1 20.3347 -18.7567 0 
488 1 21.4618 -18.7469 0 
490 1 22.5875 -18.7369 0 
492 1 23.7144 -18.7283 0 
494 1 24.8439 -18.7168 0 
496 2 25.9714 -18.7078 0 
498 2 27.0991 -18.7012 0 
500 2 28.2271 -18.6951 0 
601 2 -27.5979 -17.3354 0 
603 2 -26.4686 -17.2992 0 
605 2 -25.3391 -17.2621 0 
607 2 -24.2094 -17.2244 0 
609 1 -23.0769 -17.1844 0 
611 1 -21.9443 -17.1417 0 
613 1 -20.8138 -17.1 0 
615 1 -19.6845 -17.0554 0 
617 1 -18.5541 -17.0094 0 
619 1 -17.423 -16.9647 0 
522 1 -15.703 -17.8689 0 
621 1 -16.2911 -16.9192 0 
524 1 -14.5701 -17.8218 0 
623 1 -15.1584 -16.8718 0 
526 1 -13.4386 -17.775 0 
625 1 -14.0269 -16.8231 0 
528 1 -12.3081 -17.7281 0 
627 1 -12.8959 -16.775 0 
530 1 -11.1776 -17.6829 0 
532 1 -10.0481 -17.6399 0 
534 1 -8.92015 -17.5949 0 
536 1 -7.79387 -17.5464 0 
538 1 -6.66864 -17.496 0 
540 1 -5.5428 -17.4447 0 
542 1 -4.41735 -17.3939 0 
544 1 -3.29146 -17.3422 0 
546 1 -2.16635 -17.2907 0 
548 1 -1.04405 -17.2396 0 
550 1 0.0784664 -17.1948 0 
552 1 1.20143 -17.1549 0 
554 1 2.32432 -17.1157 0 
556 1 3.44801 -17.0822 0 
558 1 4.57288 -17.0486 0 
560 1 5.69767 -17.0172 0 
562 1 6.82081 -16.9857 0 
564 1 7.94396 -16.9566 0 
566 1 9.06722 -16.9311 0 
568 1 10.1912 -16.9048 0 
571 1 11.8919 -17.8692 0 
570 1 11.3139 -16.8848 0 
573 1 13.016 -17.8494 0 
572 1 12.4363 -16.8663 0 
575 1 14.1387 -17.8328 0 
574 1 13.5607 -16.8475 0 
577 1 15.262 -17.8195 0 
576 1 14.6845 -16.8339 0 
579 1 16.3841 -17.8049 0 
578 1 15.8054 -16.8201 0 
581 1 17.506 -17.7942 0 
580 1 16.9269 -16.8094 0 
583 1 18.6316 -17.7838 0 
582 1 18.0508 -16.8005 0 
585 1 19.7574 -17.7758 0 
584 1 19.1763 -16.7923 0 
587 1 20.8825 -17.7641 0 
586 1 20.3016 -16.7813 0 
589 1 22.0081 -17.7521 0 
588 1 21.4293 -16.7703 0 
591 1 23.1359 -17.7445 0 
590 1 22.5581 -16.7608 0 
593 1 24.2645 -17.7355 0 
592 1 23.687 -16.7519 0 
595 2 25.3948 -17.725 0 
594 1 24.8165 -16.7438 0 
596 2 25.9465 -16.7357 0 
597 2 26.5229 -17.7186 0 
598 2 27.0751 -16.7299 0 
599 2 27.6512 -17.7126 0 
600 2 28.2039 -16.7246 0 
602 2 -27.0583 -16.3463 0 
604 2 -25.929 -16.3096 0 
606 2 -24.7995 -16.2721 0 
608 1 -23.6685 -16.2324 0 
610 1 -22.537 -16.1909 0 
612 1 -21.4048 -16.1477 0 
614 1 -20.274 -16.1032 0 
616 1 -19.1433 -16.0573 0 
618 1 -18.0113 -16.0114 0 
620 1 -16.8788 -15.9674 0 
622 1 -15.7472 -15.9213 0 
624 1 -14.6162 -15.8731 0 
626 1 -13.4856 -15.8236 0 
628 1 -12.3548 -15.7754 0 
629 1 -11.7644 -16.7276 0 
630 1 -11.223 -15.7281 0 
631 1 -10.6341 -16.6833 0 
632 1 -10.0934 -15.6809 0 
633 1 -9.50615 -16.6387 0 
634 1 -8.96666 -15.6304 0 
635 1 -8.37996 -16.5888 0 
637 1 -7.25297 -16.5376 0 
639 1 -6.12724 -16.4861 0 
641 1 -5.00109 -16.4335 0 
643 1 -3.87522 -16.3805 0 
645 1 -2.75152 -16.3274 0 
647 1 -1.62771 -16.274 0 
649 1 -0.502569 -16.2252 0 
651 1 0.621571 -16.1822 0 
653 1 1.74394 -16.1424 0 
655 1 2.86799 -16.1053 0 
657 1 3.99047 -16.073 0 
659 1 5.11422 -16.0407 0 
661 1 6.23729 -16.0085 0 
663 1 7.3609 -15.978 0 
665 1 8.48399 -15.9497 0 
667 1 9.60696 -15.9248 0 
669 1 10.7315 -15.9027 0 
671 1 11.8531 -15.8821 0 
673 1 12.9757 -15.8659 0 
675 1 14.1029 -15.8488 0 
677 1 15.2288 -15.835 0 
679 1 16.352 -15.8241 0 
681 1 17.4762 -15.8142 0 
683 1 18.6018 -15.8068 0 
685 1 19.7261 -15.7977 0 
687 1 20.8522 -15.7887 0 
689 1 21.9796 -15.7795 0 
691 1 23.1095 -15.7703 0 
693 1 24.2393 -15.7604 0 
695 2 25.3699 -15.7527 0 
697 2 26.4989 -15.7471 0 
699 2 27.6281 -15.742 0 
701 2 -27.6483 -15.3934 0 
703 2 -26.5193 -15.357 0 
705 2 -25.3901 -15.3199 0 
707 2 -24.2607 -15.282 0 
709 1 -23.1283 -15.24 0 
711 1 -21.997 -15.1974 0 
713 1 -20.867 -15.1529 0 
715 1 -19.7364 -15.1068 0 
717 1 -18.6029 -15.0611 0 
719 1 -17.4681 -15.0161 0 
721 1 -16.3357 -14.9696 0 
723 1 -15.2048 -14.9226 0 
725 1 -14.0745 -14.8729 0 
727 1 -12.9429 -14.8232 0 
729 1 -11.8114 -14.7737 0 
731 1 -10.6821 -14.7249 0 
733 1 -9.55441 -14.6739 0 
636 1 -7.83972 -15.5792 0 
735 1 -8.42599 -14.6218 0 
638 1 -6.7126 -15.5268 0 
737 1 -7.29759 -14.5696 0 
640 1 -5.58647 -15.4745 0 
739 1 -6.17094 -14.5145 0 
642 1 -4.4616 -15.4199 0 
644 1 -3.33651 -15.3642 0 
646 1 -2.21361 -15.3101 0 
648 1 -1.09023 -15.2586 0 
650 1 0.0346103 -15.2101 0 
652 1 1.1584 -15.1675 0 
654 1 2.28271 -15.1309 0 
656 1 3.40695 -15.0944 0 
658 1 4.53009 -15.0639 0 
660 1 5.65384 -15.0309 0 
662 1 6.778 -15.0006 0 
664 1 7.90095 -14.9704 0 
666 1 9.02563 -14.9443 0 
668 1 10.1511 -14.9218 0 
670 1 11.2749 -14.8994 0 
672 1 12.3962 -14.8816 0 
674 1 13.5187 -14.8674 0 
676 1 14.6457 -14.8511 0 
678 1 15.7723 -14.8382 0 
680 1 16.8997 -14.8281 0 
682 1 18.0257 -14.8186 0 
684 1 19.1489 -14.8112 0 
686 1 20.2755 -14.805 0 
688 1 21.4029 -14.7976 0 
690 1 22.5305 -14.7889 0 
692 1 23.6603 -14.7781 0 
694 1 24.7904 -14.77 0 
696 2 25.9226 -14.7642 0 
698 2 27.0521 -14.7592 0 
700 2 28.1818 -14.7547 0 
702 2 -27.11 -14.4044 0 
801 2 -27.7009 -13.4516 0 
704 2 -25.9811 -14.3676 0 
803 2 -26.5724 -13.4152 0 
706 2 -24.852 -14.3301 0 
805 2 -25.4437 -13.3781 0 
708 1 -23.7203 -14.2894 0 
807 2 -24.3146 -13.3401 0 
710 1 -22.5899 -14.2472 0 
809 1 -23.1836 -13.2963 0 
712 1 -21.4597 -14.2028 0 
714 1 -20.3292 -14.1566 0 
716 1 -19.1958 -14.1121 0 
718 1 -18.061 -14.0677 0 
720 1 -16.9283 -14.0201 0 
722 1 -15.7958 -13.9716 0 
724 1 -14.6649 -13.9224 0 
726 1 -13.5336 -13.872 0 
728 1 -12.4024 -13.8208 0 
730 1 -11.2721 -13.7702 0 
732 1 -10.1423 -13.72 0 
734 1 -9.01345 -13.6676 0 
736 1 -7.88495 -13.6126 0 
738 1 -6.75833 -13.5567 0 
740 1 -5.63232 -13.4988 0 
741 1 -5.04635 -14.4576 0 
742 1 -4.50736 -13.4397 0 
743 1 -3.92276 -14.4017 0 
744 1 -3.38411 -13.3825 0 
745 1 -2.79905 -14.3452 0 
746 1 -2.26114 -13.3239 0 
747 1 -1.67618 -14.2909 0 
749 1 -0.553486 -14.2409 0 
751 1 0.570361 -14.1929 0 
753 1 1.69354 -14.153 0 
755 1 2.817 -14.1177 0 
757 1 3.94229 -14.086 0 
759 1 5.06611 -14.0547 0 
761 1 6.19009 -14.0244 0 
763 1 7.31548 -13.9943 0 
765 1 8.44179 -13.9662 0 
767 1 9.56788 -13.9408 0 
769 1 10.6926 -13.9195 0 
771 1 11.8169 -13.8981 0 
773 1 12.941 -13.8814 0 
775 1 14.0647 -13.8689 0 
777 1 15.1902 -13.8526 0 
779 1 16.3177 -13.8417 0 
781 1 17.4451 -13.8316 0 
783 1 18.5706 -13.8237 0 
785 1 19.6973 -13.8184 0 
787 1 20.827 -13.8126 0 
789 1 21.9557 -13.8057 0 
791 1 23.085 -13.7964 0 
793 1 24.2138 -13.7872 0 
795 2 25.3462 -13.7811 0 
797 2 26.4761 -13.7764 0 
799 2 27.6062 -13.772 0 
802 2 -27.164 -12.4626 0 
804 2 -26.0357 -12.4259 0 
806 2 -24.9071 -12.3884 0 
808 1 -23.7761 -12.347 0 
810 1 -22.6449 -12.3022 0 
811 1 -22.0535 -13.2529 0 
812 1 -21.5154 -12.2572 0 
813 1 -20.9234 -13.2073 0 
814 1 -20.3864 -12.2128 0 
815 1 -19.7905 -13.1618 0 
816 1 -19.2532 -12.169 0 
817 1 -18.6561 -13.1187 0 
818 1 -18.1199 -12.123 0 
819 1 -17.5235 -13.0719 0 
821 1 -16.3905 -13.0231 0 
823 1 -15.2569 -12.9726 0 
825 1 -14.1266 -12.9219 0 
827 1 -12.9967 -12.8706 0 
829 1 -11.8646 -12.819 0 
831 1 -10.732 -12.7682 0 
833 1 -9.60257 -12.7127 0 
835 1 -8.47497 -12.6569 0 
837 1 -7.34763 -12.6001 0 
839 1 -6.22268 -12.5414 0 
841 1 -5.097 -12.4828 0 
843 1 -3.97043 -12.4207 0 
845 1 -2.84775 -12.3588 0 
748 1 -1.13793 -13.2696 0 
847 1 -1.72495 -12.3014 0 
849 1 -0.602274 -12.2509 0 
750 1 -0.0157086 -13.2225 0 
851 1 0.519842 -12.2033 0 
752 1 1.10616 -13.1782 0 
853 1 1.6425 -12.1639 0 
754 1 2.22901 -13.1404 0 
756 1 3.3531 -13.1071 0 
758 1 4.47738 -13.0762 0 
760 1 5.60236 -13.0473 0 
762 1 6.72851 -13.0203 0 
764 1 7.8545 -12.9901 0 
766 1 8.97996 -12.9626 0 
768 1 10.1054 -12.9383 0 
770 1 11.2296 -12.9171 0 
772 1 12.3559 -12.8973 0 
774 1 13.4822 -12.8824 0 
776 1 14.6057 -12.87 0 
778 1 15.7335 -12.8561 0 
780 1 16.8618 -12.8454 0 
782 1 17.9897 -12.8374 0 
784 1 19.117 -12.8309 0 
786 1 20.2483 -12.8265 0 
788 1 21.3777 -12.8193 0 
790 1 22.5065 -12.8119 0 
792 1 23.6373 -12.8051 0 
794 1 24.7673 -12.7998 0 
796 2 25.9 -12.7934 0 
798 2 27.0306 -12.7893 0 
800 2 28.1612 -12.7854 0 
901 2 -27.7557 -11.5099 0 
903 2 -26.6279 -11.4735 0 
905 2 -25.4997 -11.4364 0 
907 2 -24.3713 -11.3985 0 
909 1 -23.2405 -11.3533 0 
911 1 -22.1091 -11.308 0 
913 1 -20.9781 -11.2631 0 
915 1 -19.8467 -11.2202 0 
917 1 -18.7148 -11.1746 0 
820 1 -16.9868 -12.0745 0 
919 1 -17.5821 -11.1267 0 
822 1 -15.854 -12.0254 0 
921 1 -16.4487 -11.0764 0 
824 1 -14.7217 -11.9735 0 
923 1 -15.3173 -11.0264 0 
826 1 -13.59 -11.9221 0 
828 1 -12.4574 -11.8701 0 
830 1 -11.3242 -11.8176 0 
832 1 -10.1941 -11.7602 0 
834 1 -9.06539 -11.7022 0 
836 1 -7.93673 -11.644 0 
838 1 -6.81092 -11.5842 0 
840 1 -5.68334 -11.5239 0 
842 1 -4.55949 -11.4608 0 
844 1 -3.43741 -11.3962 0 
846 1 -2.31358 -11.3366 0 
848 1 -1.19129 -11.282 0 
850 1 -0.0710918 -11.2323 0 
852 1 1.05161 -11.1893 0 
855 1 2.76618 -12.1292 0 
854 1 2.17606 -11.1536 0 
857 1 3.89074 -12.0976 0 
856 1 3.30113 -11.1199 0 
859 1 5.01658 -12.0667 0 
858 1 4.42535 -11.0895 0 
861 1 6.14199 -12.0425 0 
860 1 5.55323 -11.0602 0 
863 1 7.26825 -12.0159 0 
862 1 6.67934 -11.0358 0 
865 1 8.39608 -11.9854 0 
864 1 7.80621 -11.0098 0 
867 1 9.52303 -11.9584 0 
869 1 10.6482 -11.9334 0 
871 1 11.773 -11.9141 0 
873 1 12.8992 -11.8968 0 
875 1 14.0239 -11.8841 0 
877 1 15.1495 -11.8756 0 
879 1 16.2799 -11.8611 0 
881 1 17.4096 -11.8528 0 
883 1 18.5392 -11.8445 0 
885 1 19.6691 -11.8397 0 
887 1 20.7994 -11.8333 0 
889 1 21.9302 -11.8281 0 
891 1 23.0616 -11.821 0 
893 1 24.1914 -11.8156 0 
895 2 25.3239 -11.8103 0 
897 2 26.4549 -11.8064 0 
899 2 27.586 -11.8028 0 
902 2 -27.2202 -10.5209 0 
904 2 -26.0925 -10.4842 0 
906 2 -24.9646 -10.4468 0 
908 1 -23.8357 -10.4047 0 
910 1 -22.705 -10.3605 0 
912 1 -21.5717 -10.3152 0 
914 1 -20.4393 -10.2713 0 
916 1 -19.3094 -10.2258 0 
918 1 -18.1801 -10.1799 0 
920 1 -17.0466 -10.1308 0 
922 1 -15.9127 -10.079 0 
924 1 -14.7812 -10.0279 0 
925 1 -14.1856 -10.9749 0 
926 1 -13.6502 -9.97452 0 
927 1 -13.0532 -10.922 0 
928 1 -12.5189 -9.92041 0 
929 1 -11.9203 -10.8678 0 
930 1 -11.3861 -9.86252 0 
931 1 -10.7895 -10.8105 0 
933 1 -9.65884 -10.7502 0 
935 1 -8.52845 -10.6913 0 
937 1 -7.39867 -10.6274 0 
939 1 -6.27257 -10.5658 0 
941 1 -5.14788 -10.5015 0 
943 1 -4.02422 -10.4349 0 
945 1 -2.90154 -10.3757 0 
947 1 -1.77899 -10.3157 0 
949 1 -0.658438 -10.263 0 
951 1 0.464644 -10.2181 0 
953 1 1.5886 -10.1773 0 
955 1 2.71327 -10.1427 0 
957 1 3.83877 -10.1091 0 
959 1 4.96445 -10.0822 0 
961 1 6.09168 -10.0531 0 
963 1 7.21866 -10.0287 0 
965 1 8.34561 -10.0015 0 
866 1 8.93471 -10.98 0 
967 1 9.47425 -9.97411 0 
868 1 10.0618 -10.9535 0 
969 1 10.6009 -9.94948 0 
870 1 11.1888 -10.9292 0 
971 1 11.7302 -9.92962 0 
872 1 12.3157 -10.9134 0 
973 1 12.8568 -9.91426 0 
874 1 13.443 -10.8991 0 
975 1 13.9854 -9.90284 0 
876 1 14.5693 -10.8893 0 
977 1 15.1151 -9.89603 0 
878 1 15.6968 -10.8806 0 
979 1 16.2468 -9.88711 0 
880 1 16.8282 -10.8688 0 
981 1 17.3774 -9.87791 0 
882 1 17.9584 -10.8605 0 
983 1 18.5093 -9.86987 0 
884 1 19.09 -10.8539 0 
985 1 19.6403 -9.86511 0 
886 1 20.2207 -10.8487 0 
987 1 20.7718 -9.86097 0 
888 1 21.3526 -10.8437 0 
890 1 22.4824 -10.8385 0 
989 1 21.9045 -9.85416 0 
892 1 23.6143 -10.8314 0 
991 1 23.0367 -9.84962 0 
894 1 24.7459 -10.8274 0 
993 1 24.17 -9.84462 0 
896 2 25.8793 -10.8234 0 
995 2 25.3037 -9.84035 0 
898 2 27.0108 -10.8201 0 
997 2 26.4357 -9.83726 0 
900 2 28.1423 -10.817 0 
999 2 27.5677 -9.8344 0 
1001 2 -27.8125 -9.56805 0 
1003 2 -26.6854 -9.5318 0 
1005 2 -25.5581 -9.49477 0 
1007 2 -24.4305 -9.45693 0 
1009 1 -23.3012 -9.41207 0 
1011 1 -22.1689 -9.36847 0 
1013 1 -21.0361 -9.32281 0 
1015 1 -19.9051 -9.27805 0 
1017 1 -18.7753 -9.2308 0 
1019 1 -17.6449 -9.18592 0 
1021 1 -16.5122 -9.13554 0 
1023 1 -15.3799 -9.08308 0 
1025 1 -14.2463 -9.02961 0 
1027 1 -13.1142 -8.97445 0 
1029 1 -11.9814 -8.91693 0 
932 1 -10.2534 -9.80209 0 
1031 1 -10.8464 -8.85584 0 
934 1 -9.12045 -9.73995 0 
1033 1 -9.71308 -8.79242 0 
936 1 -7.9907 -9.67586 0 
1035 1 -8.5826 -8.72634 0 
938 1 -6.86396 -9.6108 0 
940 1 -5.73843 -9.54642 0 
942 1 -4.61394 -9.47784 0 
944 1 -3.48979 -9.41079 0 
946 1 -2.37131 -9.34772 0 
948 1 -1.24984 -9.29154 0 
950 1 -0.125557 -9.24448 0 
952 1 0.999736 -9.1998 0 
954 1 2.12539 -9.16369 0 
956 1 3.25142 -9.1308 0 
958 1 4.37829 -9.10008 0 
960 1 5.50673 -9.07426 0 
962 1 6.63516 -9.04494 0 
964 1 7.76145 -9.01876 0 
966 1 8.88996 -8.99411 0 
968 1 10.0179 -8.96679 0 
970 1 11.1454 -8.94713 0 
972 1 12.2723 -8.92886 0 
974 1 13.4015 -8.91761 0 
976 1 14.5329 -8.90911 0 
978 1 15.663 -8.90383 0 
980 1 16.7956 -8.8964 0 
982 1 17.9291 -8.88876 0 
984 1 19.0628 -8.88021 0 
986 1 20.1945 -8.87803 0 
988 1 21.3274 -8.87217 0 
990 1 22.4604 -8.86647 0 
992 1 23.5947 -8.86304 0 
994 1 24.7291 -8.85831 0 
996 2 25.8608 -8.85435 0 
998 2 26.9933 -8.85174 0 
1000 2 28.1257 -8.84931 0 
1002 2 -27.2783 -8.57905 0 
1101 2 -27.8711 -7.62598 0 
1004 2 -26.1516 -8.54247 0 
1103 2 -26.7449 -7.58983 0 
1006 2 -25.0246 -8.50509 0 
1105 2 -25.6186 -7.5529 0 
1008 1 -23.8958 -8.46322 0 
1107 2 -24.492 -7.51516 0 
1010 1 -22.7654 -8.42086 0 
1012 1 -21.6347 -8.3757 0 
1014 1 -20.5044 -8.33023 0 
1016 1 -19.3747 -8.28405 0 
1018 1 -18.2434 -8.23805 0 
1020 1 -17.112 -8.1922 0 
1022 1 -15.979 -8.13981 0 
1024 1 -14.8458 -8.08785 0 
1026 1 -13.7122 -8.03149 0 
1028 1 -12.5791 -7.97323 0 
1030 1 -11.444 -7.91183 0 
1032 1 -10.311 -7.84808 0 
1034 1 -9.17896 -7.7801 0 
1036 1 -8.04749 -7.71334 0 
1037 1 -7.45403 -8.66046 0 
1038 1 -6.91685 -7.64112 0 
1039 1 -6.32678 -8.59225 0 
1041 1 -5.20069 -8.52186 0 
1043 1 -4.07849 -8.44868 0 
1045 1 -2.96014 -8.37776 0 
1047 1 -1.83736 -8.31852 0 
1049 1 -0.71729 -8.26785 0 
1051 1 0.405704 -8.22353 0 
1053 1 1.53327 -8.18388 0 
1055 1 2.66032 -8.15096 0 
1057 1 3.78776 -8.11951 0 
1059 1 4.91712 -8.09195 0 
1061 1 6.04672 -8.06449 0 
1063 1 7.17642 -8.03409 0 
1065 1 8.30541 -8.01137 0 
1067 1 9.43513 -7.98657 0 
1069 1 10.564 -7.9612 0 
1071 1 11.6937 -7.94407 0 
1073 1 12.8206 -7.93128 0 
1075 1 13.9504 -7.92304 0 
1077 1 15.0825 -7.91801 0 
1079 1 16.2149 -7.91225 0 
1081 1 17.3485 -7.90723 0 
1083 1 18.4833 -7.89919 0 
1085 1 19.6173 -7.8922 0 
1087 1 20.7499 -7.88888 0 
1089 1 21.8838 -7.88305 0 
1091 1 23.0169 -7.88091 0 
1093 1 24.1506 -7.87672 0 
1095 2 25.2861 -7.87134 0 
1097 2 26.419 -7.86899 0 
1099 2 27.5519 -7.8668 0 
1102 2 -27.3381 -6.63684 0 
1104 2 -26.2124 -6.60035 0 
1106 2 -25.0865 -6.56307 0 
1108 1 -23.9583 -6.52366 0 
1109 1 -23.3606 -7.47231 0 
1110 1 -22.8298 -6.47993 0 
1111 1 -22.2315 -7.42842 0 
1112 1 -21.7014 -6.43445 0 
1113 1 -21.103 -7.38252 0 
1114 1 -20.5724 -6.38967 0 
1115 1 -19.974 -7.33744 0 
1116 1 -19.4435 -6.34593 0 
1117 1 -18.8432 -7.29216 0 
1119 1 -17.7118 -7.24587 0 
1121 1 -16.5806 -7.19709 0 
1123 1 -15.447 -7.14407 0 
1125 1 -14.3141 -7.09003 0 
1127 1 -13.1816 -7.02996 0 
1129 1 -12.0477 -6.97111 0 
1131 1 -10.9129 -6.90609 0 
1133 1 -9.77903 -6.8371 0 
1135 1 -8.64416 -6.76785 0 
1137 1 -7.51439 -6.69406 0 
1139 1 -6.38763 -6.6125 0 
1040 1 -5.79077 -7.56603 0 
1141 1 -5.26405 -6.53246 0 
1042 1 -4.66729 -7.48641 0 
1143 1 -4.14039 -6.4525 0 
1044 1 -3.54587 -7.41125 0 
1046 1 -2.42248 -7.35121 0 
1048 1 -1.30034 -7.29018 0 
1050 1 -0.178153 -7.24362 0 
1052 1 0.946519 -7.20453 0 
1054 1 2.0738 -7.16744 0 
1056 1 3.20287 -7.1376 0 
1058 1 4.33243 -7.10968 0 
1060 1 5.46295 -7.08285 0 
1062 1 6.59291 -7.05441 0 
1064 1 7.72393 -7.02681 0 
1066 1 8.85254 -7.00456 0 
1068 1 9.98258 -6.98111 0 
1070 1 11.113 -6.95968 0 
1072 1 12.2431 -6.94508 0 
1074 1 13.3728 -6.93611 0 
1076 1 14.5047 -6.92979 0 
1078 1 15.6362 -6.9278 0 
1080 1 16.7697 -6.92146 0 
1082 1 17.9038 -6.91623 0 
1084 1 19.0378 -6.90849 0 
1086 1 20.1726 -6.904 0 
1088 1 21.3075 -6.89939 0 
1090 1 22.4418 -6.89685 0 
1092 1 23.5756 -6.89456 0 
1094 1 24.7098 -6.88883 0 
1096 2 25.8451 -6.88616 0 
1098 2 26.9784 -6.88422 0 
1100 2 28.1116 -6.88241 0 
1201 2 -27.9311 -5.68349 0 
1203 2 -26.806 -5.64742 0 
1205 2 -25.6808 -5.61059 0 