ITEM: TIMESTEP
600
ITEM: NUMBER OF ATOMS
2850
ITEM: BOX BOUNDS ff ff pp
-42.092 42.092
-42.092 42.092
-0.280613 0.280613
ITEM: ATOMS id type xu yu zu 
1 2 -27.3398 -28.9988 0 
3 2 -26.2107 -28.9642 0 
5 2 -25.0816 -28.9291 0 
7 2 -23.9525 -28.8936 0 
9 2 -22.8235 -28.8577 0 
11 2 -21.6944 -28.8213 0 
13 2 -20.5655 -28.7844 0 
15 2 -19.4366 -28.7472 0 
17 2 -18.3079 -28.7095 0 
19 2 -17.1793 -28.6715 0 
21 2 -16.0508 -28.6331 0 
23 2 -14.9226 -28.5944 0 
25 2 -13.7947 -28.5554 0 
27 2 -12.667 -28.5163 0 
29 2 -11.5396 -28.477 0 
31 2 -10.4126 -28.4376 0 
33 2 -9.28592 -28.3982 0 
35 2 -8.15967 -28.3589 0 
37 2 -7.03386 -28.3198 0 
39 2 -5.90848 -28.281 0 
2 2 -26.7941 -28.0086 0 
4 2 -25.6649 -27.9736 0 
6 2 -24.5357 -27.9381 0 
8 2 -23.4065 -27.902 0 
10 2 -22.2773 -27.8656 0 
12 2 -21.1481 -27.8286 0 
14 2 -20.019 -27.7912 0 
16 2 -18.89 -27.7533 0 
18 2 -17.7611 -27.715 0 
20 2 -16.6324 -27.6763 0 
22 2 -15.5039 -27.6373 0 
24 2 -14.3755 -27.5979 0 
26 2 -13.2475 -27.5582 0 
28 2 -12.1197 -27.5183 0 
30 2 -10.9923 -27.4783 0 
32 2 -9.86522 -27.4382 0 
34 2 -8.73856 -27.3981 0 
36 2 -7.61233 -27.3581 0 
38 2 -6.48656 -27.3184 0 
40 2 -5.36126 -27.2789 0 
41 2 -4.78357 -28.2426 0 
42 2 -4.23645 -27.24 0 
43 2 -3.65912 -28.2046 0 
44 2 -3.11213 -27.2015 0 
45 2 -2.53513 -28.1673 0 
46 2 -1.98828 -27.1638 0 
47 2 -1.41159 -28.1307 0 
48 2 -0.8649 -27.1269 0 
49 2 -0.288464 -28.095 0 
51 2 0.834263 -28.0602 0 
53 2 1.95663 -28.0264 0 
55 2 3.07869 -27.9937 0 
57 2 4.20048 -27.9622 0 
59 2 5.32207 -27.9319 0 
61 2 6.4435 -27.9029 0 
63 2 7.56483 -27.8752 0 
65 2 8.68613 -27.8488 0 
67 2 9.80743 -27.8237 0 
69 2 10.9288 -27.8 0 
71 2 12.0503 -27.7775 0 
73 2 13.1719 -27.7563 0 
75 2 14.2937 -27.7363 0 
77 2 15.4157 -27.7174 0 
79 2 16.538 -27.6997 0 
81 2 17.6605 -27.683 0 
83 2 18.7832 -27.6673 0 
85 2 19.9063 -27.6526 0 
87 2 21.0296 -27.6388 0 
89 2 22.1532 -27.6258 0 
91 2 23.2771 -27.6136 0 
93 2 24.4012 -27.6022 0 
95 2 25.5256 -27.5914 0 
97 2 26.6503 -27.5812 0 
99 2 27.7752 -27.5717 0 
101 2 -27.378 -27.0533 0 
103 2 -26.2487 -27.0183 0 
102 2 -26.833 -26.0633 0 
105 2 -25.1194 -26.9828 0 
104 2 -25.7037 -26.0278 0 
107 2 -23.9901 -26.9468 0 
106 2 -24.5742 -25.9918 0 
109 2 -22.8607 -26.9102 0 
108 1 -23.4462 -25.9554 0 
111 2 -21.7314 -26.8732 0 
113 2 -20.6021 -26.8357 0 
115 2 -19.4729 -26.7977 0 
117 2 -18.3437 -26.7591 0 
119 2 -17.2147 -26.7202 0 
121 2 -16.0858 -26.6808 0 
123 2 -14.9572 -26.641 0 
125 2 -13.8287 -26.6009 0 
127 2 -12.7006 -26.5605 0 
129 2 -11.5727 -26.5198 0 
131 2 -10.4452 -26.479 0 
133 2 -9.31813 -26.4382 0 
135 2 -8.19146 -26.3973 0 
137 2 -7.06526 -26.3566 0 
139 2 -5.93954 -26.3162 0 
141 2 -4.81433 -26.2762 0 
143 2 -3.68963 -26.2366 0 
145 2 -2.56545 -26.1977 0 
147 2 -1.44177 -26.1596 0 
50 2 0.258046 -27.0909 0 
149 2 -0.318563 -26.1224 0 
52 2 1.38059 -27.056 0 
151 2 0.804196 -26.0862 0 
54 2 2.50279 -27.0222 0 
153 2 1.92656 -26.0512 0 
56 2 3.62468 -26.9896 0 
155 2 3.04857 -26.0174 0 
58 2 4.74633 -26.9582 0 
157 2 4.1703 -25.9849 0 
60 2 5.86779 -26.9282 0 
159 2 5.2918 -25.9538 0 
62 2 6.98913 -26.8996 0 
64 2 8.11041 -26.8723 0 
66 2 9.23169 -26.8465 0 
68 2 10.353 -26.822 0 
70 2 11.4745 -26.7989 0 
72 2 12.596 -26.7771 0 
74 2 13.7178 -26.7566 0 
76 2 14.8398 -26.7373 0 
78 2 15.962 -26.7192 0 
80 2 17.0845 -26.7023 0 
82 2 18.2073 -26.6863 0 
84 2 19.3304 -26.6714 0 
86 2 20.4538 -26.6575 0 
88 2 21.5774 -26.6444 0 
90 2 22.7014 -26.6321 0 
92 2 23.8256 -26.6206 0 
94 2 24.9501 -26.6098 0 
96 2 26.0749 -26.5996 0 
98 2 27.2 -26.5901 0 
100 2 28.3253 -26.5811 0 
201 2 -27.4179 -25.1085 0 
203 2 -26.2885 -25.0731 0 
205 2 -25.159 -25.0372 0 
207 2 -24.0295 -25.0007 0 
209 1 -22.9 -24.9645 0 
110 1 -22.3169 -25.9186 0 
211 1 -21.7705 -24.9272 0 
112 1 -21.187 -25.8805 0 
213 1 -20.6404 -24.8893 0 
114 1 -20.0567 -25.8428 0 
215 1 -19.5103 -24.85 0 
116 1 -18.9266 -25.8044 0 
217 1 -18.3799 -24.8105 0 
118 1 -17.7965 -25.766 0 
120 1 -16.6662 -25.7264 0 
122 1 -15.5366 -25.6849 0 
124 1 -14.4082 -25.6426 0 
126 1 -13.2804 -25.6007 0 
128 1 -12.1526 -25.5587 0 
130 1 -11.0253 -25.5161 0 
132 1 -9.89943 -25.4731 0 
134 1 -8.77493 -25.4308 0 
136 1 -7.65011 -25.3899 0 
138 1 -6.52424 -25.3502 0 
140 1 -5.39845 -25.3107 0 
142 1 -4.27418 -25.2703 0 
144 1 -3.15125 -25.2293 0 
146 1 -2.02842 -25.1899 0 
148 1 -0.905424 -25.1522 0 
150 1 0.217104 -25.1142 0 
152 1 1.33914 -25.0764 0 
154 1 2.46102 -25.0413 0 
156 1 3.58258 -25.0084 0 
158 1 4.7039 -24.9766 0 
160 1 5.82565 -24.9466 0 
161 2 6.41316 -25.9242 0 
162 1 6.94799 -24.9186 0 
163 2 7.53443 -25.896 0 
164 1 8.07073 -24.8913 0 
165 2 8.65568 -25.8693 0 
167 2 9.77697 -25.844 0 
166 1 9.19377 -24.865 0 
169 2 10.8984 -25.8202 0 
168 1 10.3166 -24.8401 0 
171 2 12.0199 -25.7978 0 
170 1 11.4386 -24.8162 0 
173 2 13.1416 -25.7768 0 
172 1 12.5599 -24.7939 0 
175 2 14.2636 -25.7571 0 
177 2 15.3858 -25.7386 0 
179 2 16.5083 -25.7213 0 
181 2 17.6311 -25.7052 0 
183 2 18.7543 -25.6901 0 
185 2 19.8777 -25.6759 0 
187 2 21.0014 -25.6627 0 
189 2 22.1254 -25.6504 0 
191 2 23.2498 -25.6388 0 
193 2 24.3744 -25.628 0 
195 2 25.4993 -25.6179 0 
197 2 26.6245 -25.6084 0 
199 2 27.75 -25.5994 0 
202 2 -26.8739 -24.1187 0 
204 2 -25.7444 -24.0828 0 
206 2 -24.6148 -24.0464 0 
208 1 -23.4831 -24.0096 0 
210 1 -22.3527 -23.9734 0 
212 1 -21.2217 -23.9363 0 
214 1 -20.0917 -23.8963 0 
216 1 -18.962 -23.8551 0 
219 1 -17.2493 -24.7711 0 
218 1 -17.8326 -23.8143 0 
221 1 -16.119 -24.7298 0 
220 1 -16.7034 -23.7736 0 
222 1 -15.5741 -23.7314 0 
223 1 -14.9896 -24.6868 0 
224 1 -14.4459 -23.6876 0 
225 1 -13.8617 -24.6437 0 
226 1 -13.3196 -23.6429 0 
227 1 -12.7351 -24.6003 0 
229 1 -11.6093 -24.5558 0 
231 1 -10.4839 -24.5105 0 
233 1 -9.35904 -24.4657 0 
235 1 -8.23417 -24.4235 0 
237 1 -7.1081 -24.3838 0 
239 1 -5.98152 -24.3442 0 
241 1 -4.85675 -24.3028 0 
243 1 -3.73377 -24.2604 0 
245 1 -2.61047 -24.2196 0 
247 1 -1.4871 -24.1805 0 
249 1 -0.365377 -24.1417 0 
251 1 0.755708 -24.1037 0 
253 1 1.87742 -24.0677 0 
255 1 2.99842 -24.0332 0 
257 1 4.1185 -24 0 
259 1 5.23947 -23.9687 0 
261 1 6.36149 -23.9391 0 
263 1 7.48401 -23.9112 0 
265 1 8.60752 -23.8855 0 
267 1 9.73193 -23.8607 0 
269 1 10.8565 -23.8364 0 
271 1 11.9806 -23.8128 0 
273 1 13.1037 -23.7913 0 
174 1 13.6812 -24.7741 0 
275 1 14.2263 -23.7738 0 
176 1 14.8035 -24.7569 0 
277 1 15.3489 -23.7601 0 
178 1 15.9278 -24.7418 0 
279 1 16.4725 -23.7478 0 
180 1 17.0542 -24.727 0 
281 1 17.5981 -23.7335 0 
182 1 18.1812 -24.7111 0 
283 1 18.7249 -23.7156 0 
184 1 19.3063 -24.6948 0 
285 1 19.8513 -23.6987 0 
186 1 20.4288 -24.6809 0 
287 1 20.9764 -23.6873 0 
188 1 21.5508 -24.6695 0 
289 1 22.1009 -23.6787 0 
190 1 22.6741 -24.6591 0 
291 1 23.2253 -23.6695 0 
192 1 23.7991 -24.6485 0 
293 1 24.3492 -23.6571 0 
194 1 24.9242 -24.637 0 
295 2 25.4729 -23.6443 0 
196 2 26.0488 -24.6264 0 
198 2 27.1745 -24.6176 0 
200 2 28.3003 -24.6093 0 
301 2 -27.4598 -23.1644 0 
303 2 -26.3303 -23.1287 0 
305 2 -25.2007 -23.0924 0 
307 2 -24.071 -23.0555 0 
309 1 -22.9377 -23.018 0 
311 1 -21.805 -22.9822 0 
313 1 -20.6738 -22.9424 0 
315 1 -19.5443 -22.9009 0 
317 1 -18.4153 -22.8589 0 
319 1 -17.2865 -22.8171 0 
321 1 -16.158 -22.7748 0 
323 1 -15.0297 -22.7305 0 
325 1 -13.9027 -22.6853 0 
327 1 -12.7765 -22.6398 0 
228 1 -12.1945 -23.5976 0 
329 1 -11.651 -22.5936 0 
230 1 -11.069 -23.5514 0 
331 1 -10.5254 -22.5471 0 
232 1 -9.94303 -23.5052 0 
333 1 -9.39852 -22.502 0 
234 1 -8.81678 -23.4607 0 
236 1 -7.69006 -23.4191 0 
238 1 -6.56357 -23.378 0 
240 1 -5.43833 -23.3345 0 
242 1 -4.31375 -23.2906 0 
244 1 -3.1892 -23.2487 0 
246 1 -2.06596 -23.2076 0 
248 1 -0.944417 -23.1667 0 
250 1 0.177121 -23.1285 0 
252 1 1.29867 -23.0925 0 
254 1 2.41913 -23.0566 0 
256 1 3.53917 -23.0224 0 
258 1 4.65968 -22.9908 0 
260 1 5.78069 -22.9601 0 
262 1 6.90269 -22.9307 0 
264 1 8.02554 -22.9042 0 
266 1 9.14888 -22.8801 0 
268 1 10.2736 -22.8571 0 
270 1 11.3999 -22.8341 0 
272 1 12.5261 -22.8116 0 
274 1 13.6507 -22.7918 0 
276 1 14.7724 -22.7758 0 
278 1 15.8927 -22.7636 0 
280 1 17.0146 -22.7525 0 
282 1 18.1399 -22.7375 0 
284 1 19.2682 -22.7198 0 
286 1 20.3971 -22.7058 0 
288 1 21.5239 -22.6971 0 
290 1 22.6487 -22.6892 0 
292 1 23.7722 -22.6777 0 
294 1 24.8965 -22.6636 0 
297 2 26.5987 -23.6355 0 
296 2 26.0228 -22.6533 0 
299 2 27.7248 -23.6273 0 
298 2 27.149 -22.6452 0 
300 2 28.2755 -22.6376 0 
302 2 -26.9167 -22.1747 0 
304 2 -25.7871 -22.1385 0 
306 2 -24.6574 -22.1018 0 
308 1 -23.5247 -22.0639 0 
310 1 -22.3905 -22.0265 0 
312 1 -21.2591 -21.9874 0 
314 1 -20.1286 -21.9461 0 
316 1 -18.9989 -21.9047 0 
318 1 -17.8699 -21.862 0 
320 1 -16.742 -21.8186 0 
322 1 -15.6141 -21.7744 0 
324 1 -14.485 -21.7291 0 
326 1 -13.3565 -21.6832 0 
328 1 -12.2305 -21.6357 0 
330 1 -11.1051 -21.5882 0 
332 1 -9.97759 -21.5429 0 
334 1 -8.84903 -21.4984 0 
335 1 -8.27051 -22.4584 0 
336 1 -7.72213 -21.4521 0 
337 1 -7.14356 -22.4137 0 
338 1 -6.59601 -21.4047 0 
339 1 -6.01821 -22.3678 0 
340 1 -5.46964 -21.3591 0 
341 1 -4.89237 -22.323 0 
342 1 -4.34459 -21.3139 0 
343 1 -3.76678 -22.2795 0 
345 1 -2.64371 -22.2357 0 
347 1 -1.52186 -22.1931 0 
349 1 -0.399262 -22.1536 0 
351 1 0.72259 -22.1148 0 
353 1 1.84282 -22.0768 0 
355 1 2.9632 -22.042 0 
357 1 4.08394 -22.0099 0 
359 1 5.20455 -21.9793 0 
361 1 6.32631 -21.9513 0 
363 1 7.44915 -21.9245 0 
365 1 8.57171 -21.899 0 
367 1 9.69424 -21.8764 0 
369 1 10.8176 -21.855 0 
371 1 11.9429 -21.8337 0 
373 1 13.0695 -21.813 0 
375 1 14.195 -21.7935 0 
377 1 15.318 -21.7775 0 
379 1 16.4393 -21.7663 0 
381 1 17.5613 -21.7556 0 
383 1 18.6859 -21.7414 0 
385 1 19.8134 -21.7264 0 
387 1 20.9415 -21.715 0 
389 1 22.0683 -21.7072 0 
391 1 23.1938 -21.6975 0 
393 1 24.3195 -21.6844 0 
395 2 25.4466 -21.6709 0 
397 2 26.573 -21.6629 0 
399 2 27.6998 -21.6554 0 
401 2 -27.5037 -21.2208 0 
403 2 -26.3741 -21.1849 0 
402 2 -26.9617 -20.2313 0 
405 2 -25.2445 -21.1483 0 
404 2 -25.8321 -20.1949 0 
407 2 -24.1147 -21.111 0 
409 1 -22.9799 -21.0727 0 
411 1 -21.8475 -21.0322 0 
413 1 -20.7164 -20.9912 0 
415 1 -19.585 -20.9494 0 
417 1 -18.4553 -20.9069 0 
419 1 -17.3268 -20.8632 0 
421 1 -16.1981 -20.8199 0 
423 1 -15.0682 -20.7759 0 
425 1 -13.9386 -20.7287 0 
427 1 -12.8116 -20.6792 0 
429 1 -11.6851 -20.6304 0 
431 1 -10.557 -20.5839 0 
433 1 -9.42833 -20.5381 0 
435 1 -8.30068 -20.4912 0 
437 1 -7.17383 -20.4441 0 
439 1 -6.0476 -20.3971 0 
441 1 -4.92239 -20.3492 0 
344 1 -3.22146 -21.2677 0 
443 1 -3.79811 -20.3009 0 
346 1 -2.09848 -21.2231 0 
445 1 -2.67424 -20.2539 0 
348 1 -0.975498 -21.1808 0 
447 1 -1.55149 -20.2083 0 
350 1 0.146074 -21.1388 0 
449 1 -0.430076 -20.164 0 
352 1 1.26687 -21.0986 0 
354 1 2.38758 -21.0623 0 
356 1 3.50765 -21.028 0 
358 1 4.62827 -20.9961 0 
360 1 5.75022 -20.9684 0 
362 1 6.87234 -20.9433 0 
364 1 7.99517 -20.9191 0 
366 1 9.11854 -20.8959 0 
368 1 10.2405 -20.8737 0 
370 1 11.3621 -20.854 0 
372 1 12.4855 -20.835 0 
374 1 13.6113 -20.8148 0 
376 1 14.7381 -20.7949 0 
378 1 15.8636 -20.7791 0 
380 1 16.9867 -20.7685 0 
382 1 18.1086 -20.7582 0 
384 1 19.2325 -20.7466 0 
386 1 20.3593 -20.7345 0 
388 1 21.4873 -20.7244 0 
390 1 22.6147 -20.7155 0 
392 1 23.742 -20.7044 0 
394 1 24.8699 -20.692 0 
396 2 25.9969 -20.6804 0 
398 2 27.1238 -20.673 0 
400 2 28.251 -20.6661 0 
501 2 -27.5497 -19.2779 0 
503 2 -26.4202 -19.2417 0 
505 2 -25.2906 -19.2049 0 
406 2 -24.7023 -20.1579 0 
507 2 -24.1608 -19.1673 0 
408 1 -23.5685 -20.1193 0 
509 1 -23.0262 -19.1265 0 
410 1 -22.4364 -20.079 0 
511 1 -21.8939 -19.084 0 
412 1 -21.305 -20.037 0 
414 1 -20.174 -19.9948 0 
513 1 -20.7628 -19.0414 0 
416 1 -19.0437 -19.9512 0 
418 1 -17.9136 -19.9086 0 
420 1 -16.783 -19.8659 0 
422 1 -15.6535 -19.8225 0 
424 1 -14.5249 -19.775 0 
426 1 -13.3963 -19.7248 0 
428 1 -12.2671 -19.6752 0 
430 1 -11.1383 -19.6277 0 
432 1 -10.0098 -19.5804 0 
434 1 -8.88146 -19.5326 0 
436 1 -7.75394 -19.484 0 
438 1 -6.62745 -19.4347 0 
440 1 -5.50145 -19.3844 0 
442 1 -4.37587 -19.3334 0 
444 1 -3.25127 -19.2838 0 
446 1 -2.12788 -19.2366 0 
448 1 -1.00574 -19.191 0 
450 1 0.115468 -19.148 0 
451 1 0.691052 -20.123 0 
452 1 1.23603 -19.1085 0 
453 1 1.81198 -20.0849 0 
454 1 2.35658 -19.0716 0 
455 1 2.93196 -20.0488 0 
456 1 3.4778 -19.0377 0 
457 1 4.05229 -20.0162 0 
458 1 4.59873 -19.0068 0 
459 1 5.17393 -19.9863 0 
461 1 6.29559 -19.9587 0 
463 1 7.41743 -19.936 0 
465 1 8.5404 -19.9153 0 
467 1 9.66427 -19.893 0 
469 1 10.7874 -19.8718 0 
471 1 11.9084 -19.8528 0 
473 1 13.0298 -19.8346 0 
475 1 14.1542 -19.8149 0 
477 1 15.2811 -19.7957 0 
479 1 16.4079 -19.7813 0 
481 1 17.5318 -19.7708 0 
483 1 18.6547 -19.7627 0 
485 1 19.7797 -19.754 0 
487 1 20.9074 -19.7431 0 
489 1 22.036 -19.7322 0 
491 1 23.1641 -19.7219 0 
493 1 24.2928 -19.7117 0 
495 2 25.4205 -19.6978 0 
497 2 26.5477 -19.6905 0 
499 2 27.6751 -19.6838 0 
502 2 -27.0088 -18.2886 0 
504 2 -25.8793 -18.252 0 
506 2 -24.7497 -18.2147 0 
508 1 -23.6173 -18.1754 0 
510 1 -22.4841 -18.1317 0 
512 1 -21.3514 -18.0889 0 
514 1 -20.2195 -18.0471 0 
515 1 -19.6318 -18.9981 0 
516 1 -19.0876 -18.0036 0 
517 1 -18.5001 -18.955 0 
518 1 -17.9566 -17.9583 0 
519 1 -17.3691 -18.912 0 
520 1 -16.827 -17.9118 0 
521 1 -16.2401 -18.8668 0 
522 1 -15.6984 -17.8642 0 
523 1 -15.1127 -18.8201 0 
525 1 -13.9838 -18.7708 0 
527 1 -12.8533 -18.7216 0 
529 1 -11.7229 -18.6735 0 
531 1 -10.5935 -18.6256 0 
533 1 -9.46506 -18.5759 0 
535 1 -8.33705 -18.5245 0 
537 1 -7.2092 -18.4733 0 
539 1 -6.08228 -18.4212 0 
541 1 -4.95715 -18.3682 0 
543 1 -3.83218 -18.317 0 
545 1 -2.70719 -18.2684 0 
547 1 -1.58432 -18.2201 0 
549 1 -0.463019 -18.1741 0 
551 1 0.658282 -18.1321 0 
553 1 1.77908 -18.0934 0 
555 1 2.90009 -18.058 0 
557 1 4.02178 -18.0251 0 
559 1 5.14324 -17.9962 0 
460 1 5.71971 -18.9779 0 
561 1 6.26461 -17.9711 0 
462 1 6.84159 -18.9524 0 
563 1 7.38587 -17.9466 0 
464 1 7.9629 -18.9306 0 
565 1 8.5075 -17.9256 0 
466 1 9.08501 -18.911 0 
567 1 9.62952 -17.9065 0 
468 1 10.2096 -18.8904 0 
569 1 10.7534 -17.8855 0 
470 1 11.3339 -18.8684 0 
472 1 12.4564 -18.8493 0 
474 1 13.5779 -18.8319 0 
476 1 14.7014 -18.8144 0 
478 1 15.8276 -18.7978 0 
480 1 16.9532 -18.7837 0 
482 1 18.0771 -18.7746 0 
484 1 19.2013 -18.7691 0 
486 1 20.328 -18.762 0 
488 1 21.4568 -18.751 0 
490 1 22.5859 -18.7387 0 
492 1 23.7152 -18.7291 0 
494 1 24.8436 -18.7178 0 
496 2 25.9714 -18.7078 0 
498 2 27.0991 -18.7012 0 
500 2 28.2271 -18.6951 0 
601 2 -27.5979 -17.3354 0 
603 2 -26.4686 -17.2992 0 
605 2 -25.3391 -17.2621 0 
607 2 -24.2094 -17.2244 0 
609 1 -23.0754 -17.1802 0 
611 1 -21.9423 -17.1374 0 
613 1 -20.8093 -17.0955 0 
615 1 -19.6779 -17.0532 0 
617 1 -18.5464 -17.0069 0 
619 1 -17.4151 -16.9596 0 
621 1 -16.2846 -16.9108 0 
524 1 -14.5706 -17.8161 0 
623 1 -15.1568 -16.8613 0 
526 1 -13.4415 -17.767 0 
625 1 -14.029 -16.8118 0 
528 1 -12.3105 -17.7186 0 
627 1 -12.8985 -16.7631 0 
530 1 -11.1798 -17.6701 0 
629 1 -11.7669 -16.7128 0 
532 1 -10.0508 -17.6187 0 
534 1 -8.92243 -17.5663 0 
536 1 -7.79334 -17.5143 0 
538 1 -6.66643 -17.4614 0 
540 1 -5.54173 -17.4074 0 
542 1 -4.41613 -17.3554 0 
544 1 -3.29053 -17.3039 0 
546 1 -2.16765 -17.2509 0 
548 1 -1.04564 -17.2014 0 
550 1 0.0762394 -17.1568 0 
552 1 1.19715 -17.1145 0 
554 1 2.31809 -17.0767 0 
556 1 3.43936 -17.0433 0 
558 1 4.56175 -17.0124 0 
560 1 5.68433 -16.9855 0 
562 1 6.80607 -16.9619 0 
564 1 7.92869 -16.9406 0 
566 1 9.05075 -16.92 0 
568 1 10.173 -16.9014 0 
571 1 11.8793 -17.8643 0 
570 1 11.2977 -16.8816 0 
573 1 13.0036 -17.8449 0 
572 1 12.424 -16.8597 0 
575 1 14.1269 -17.8299 0 
574 1 13.5496 -16.8421 0 
577 1 15.2508 -17.8159 0 
576 1 14.6736 -16.8298 0 
579 1 16.3758 -17.8 0 
578 1 15.7982 -16.8178 0 
581 1 17.5007 -17.7858 0 
580 1 16.9235 -16.8013 0 
583 1 18.6252 -17.7789 0 
582 1 18.0493 -16.7886 0 
585 1 19.7504 -17.7759 0 
584 1 19.1745 -16.7838 0 
587 1 20.8778 -17.7699 0 
586 1 20.3002 -16.7829 0 
589 1 22.0067 -17.7582 0 
588 1 21.4276 -16.7772 0 
591 1 23.1363 -17.7464 0 
590 1 22.557 -16.7664 0 
593 1 24.2653 -17.7358 0 
592 1 23.6862 -16.754 0 
595 2 25.3948 -17.725 0 
594 1 24.8153 -16.7426 0 
596 2 25.9465 -16.7357 0 
597 2 26.5229 -17.7186 0 
598 2 27.0751 -16.7299 0 
599 2 27.6512 -17.7126 0 
600 2 28.2039 -16.7246 0 
602 2 -27.0583 -16.3463 0 
604 2 -25.929 -16.3096 0 
606 2 -24.7995 -16.2721 0 
608 1 -23.6674 -16.23 0 
610 1 -22.5351 -16.1864 0 
612 1 -21.4021 -16.1446 0 
614 1 -20.2688 -16.1011 0 
616 1 -19.1369 -16.0574 0 
618 1 -18.0049 -16.0095 0 
620 1 -16.875 -15.96 0 
622 1 -15.7457 -15.9079 0 
624 1 -14.6166 -15.8579 0 
626 1 -13.4859 -15.8084 0 
628 1 -12.3547 -15.7572 0 
630 1 -11.2242 -15.7041 0 
631 1 -10.6372 -16.6608 0 
632 1 -10.095 -15.6512 0 
633 1 -9.50824 -16.6083 0 
634 1 -8.96762 -15.5975 0 
635 1 -8.37981 -16.5563 0 
636 1 -7.84097 -15.5422 0 
637 1 -7.25328 -16.5024 0 
639 1 -6.12753 -16.4479 0 
641 1 -5.00119 -16.3945 0 
643 1 -3.87655 -16.3386 0 
645 1 -2.75416 -16.2815 0 
647 1 -1.63133 -16.2299 0 
649 1 -0.509365 -16.1822 0 
651 1 0.61059 -16.1372 0 
653 1 1.73139 -16.0976 0 
655 1 2.85301 -16.0609 0 
657 1 3.97473 -16.0288 0 
659 1 5.09729 -16.0001 0 
661 1 6.22066 -15.9743 0 
663 1 7.34487 -15.9531 0 
665 1 8.46867 -15.9325 0 
667 1 9.59213 -15.9148 0 
669 1 10.7155 -15.8984 0 
671 1 11.8418 -15.879 0 
673 1 12.9705 -15.8572 0 
675 1 14.097 -15.8398 0 
677 1 15.221 -15.8296 0 
679 1 16.3451 -15.8176 0 
681 1 17.4718 -15.8037 0 
683 1 18.5984 -15.7929 0 
685 1 19.7237 -15.7903 0 
687 1 20.8492 -15.7897 0 
689 1 21.9775 -15.7852 0 
691 1 23.1076 -15.7747 0 
693 1 24.2376 -15.7617 0 
695 2 25.3699 -15.7527 0 
697 2 26.4989 -15.7471 0 
699 2 27.6281 -15.742 0 
701 2 -27.6483 -15.3934 0 
703 2 -26.5193 -15.357 0 
705 2 -25.3901 -15.3199 0 
707 2 -24.2607 -15.282 0 
709 1 -23.1277 -15.2383 0 
711 1 -21.9938 -15.1941 0 
713 1 -20.8609 -15.1502 0 
715 1 -19.7286 -15.1066 0 
717 1 -18.5981 -15.0605 0 
719 1 -17.4687 -15.0091 0 
721 1 -16.3386 -14.9571 0 
723 1 -15.2064 -14.9058 0 
725 1 -14.0746 -14.8559 0 
727 1 -12.9438 -14.8041 0 
729 1 -11.8133 -14.7501 0 
731 1 -10.6838 -14.6956 0 
733 1 -9.55608 -14.6395 0 
735 1 -8.42848 -14.5831 0 
638 1 -6.7134 -15.4872 0 
737 1 -7.29956 -14.5271 0 
640 1 -5.58661 -15.4316 0 
739 1 -6.17256 -14.4691 0 
642 1 -4.46329 -15.3721 0 
741 1 -5.05004 -14.4069 0 
644 1 -3.34134 -15.3125 0 
743 1 -3.92855 -14.3454 0 
646 1 -2.21842 -15.2587 0 
648 1 -1.097 -15.2079 0 
650 1 0.022733 -15.1598 0 
652 1 1.14307 -15.1178 0 
654 1 2.2635 -15.0791 0 
656 1 3.38547 -15.0441 0 
658 1 4.50761 -15.014 0 
660 1 5.62982 -14.9878 0 
662 1 6.75357 -14.9657 0 
664 1 7.87847 -14.945 0 
666 1 9.00524 -14.9263 0 
668 1 10.1301 -14.9093 0 
670 1 11.2552 -14.8962 0 
672 1 12.3831 -14.8783 0 
674 1 13.5147 -14.8566 0 
676 1 14.6446 -14.8393 0 
678 1 15.7697 -14.8275 0 
680 1 16.8945 -14.818 0 
682 1 18.022 -14.8077 0 
684 1 19.1493 -14.8001 0 
686 1 20.2743 -14.7977 0 
688 1 21.4001 -14.7975 0 
690 1 22.5293 -14.7935 0 
692 1 23.6599 -14.7823 0 
694 1 24.791 -14.7717 0 
696 2 25.9226 -14.7642 0 
698 2 27.0521 -14.7592 0 
700 2 28.1818 -14.7547 0 
702 2 -27.11 -14.4044 0 
801 2 -27.7009 -13.4516 0 
704 2 -25.9811 -14.3676 0 
803 2 -26.5724 -13.4152 0 
706 2 -24.852 -14.3301 0 
805 2 -25.4437 -13.3781 0 
708 1 -23.7188 -14.2901 0 
807 2 -24.3146 -13.3401 0 
710 1 -22.586 -14.2457 0 
809 1 -23.1814 -13.2973 0 
712 1 -21.4541 -14.2004 0 
714 1 -20.3229 -14.1562 0 
716 1 -19.1926 -14.1103 0 
718 1 -18.0624 -14.0595 0 
720 1 -16.9314 -14.0075 0 
722 1 -15.7981 -13.9562 0 
724 1 -14.6649 -13.905 0 
726 1 -13.5335 -13.8524 0 
728 1 -12.4033 -13.7979 0 
730 1 -11.2735 -13.7408 0 
732 1 -10.1446 -13.6838 0 
734 1 -9.01505 -13.6269 0 
736 1 -7.88541 -13.5696 0 
738 1 -6.75877 -13.5088 0 
740 1 -5.63638 -13.4438 0 
742 1 -4.51452 -13.3802 0 
744 1 -3.39162 -13.3211 0 
745 1 -2.80548 -14.2891 0 
746 1 -2.2702 -13.2622 0 
747 1 -1.68377 -14.2343 0 
748 1 -1.15015 -13.2074 0 
749 1 -0.563957 -14.1826 0 
751 1 0.556197 -14.1373 0 
753 1 1.67643 -14.0956 0 
755 1 2.79808 -14.0604 0 
757 1 3.92015 -14.028 0 
759 1 5.04246 -14.0006 0 
761 1 6.16518 -13.9775 0 
763 1 7.28853 -13.9571 0 
765 1 8.41381 -13.9398 0 
767 1 9.54112 -13.9202 0 
769 1 10.6697 -13.9048 0 
771 1 11.7954 -13.892 0 
773 1 12.9234 -13.8784 0 
775 1 14.0555 -13.8591 0 
777 1 15.1881 -13.8408 0 
779 1 16.3167 -13.8281 0 
781 1 17.4444 -13.821 0 
783 1 18.5737 -13.814 0 
785 1 19.7022 -13.8084 0 
787 1 20.8275 -13.8061 0 
789 1 21.9538 -13.8062 0 
791 1 23.0831 -13.8006 0 
793 1 24.2151 -13.7912 0 
795 2 25.3462 -13.7811 0 
797 2 26.4761 -13.7764 0 
799 2 27.6062 -13.772 0 
802 2 -27.164 -12.4626 0 
804 2 -26.0357 -12.4259 0 
806 2 -24.9071 -12.3884 0 
808 1 -23.7759 -12.3484 0 
810 1 -22.6427 -12.3058 0 
811 1 -22.0483 -13.253 0 
812 1 -21.512 -12.2595 0 
813 1 -20.9169 -13.2074 0 
814 1 -20.3819 -12.2109 0 
815 1 -19.786 -13.1593 0 
816 1 -19.2498 -12.1616 0 
817 1 -18.6552 -13.111 0 
818 1 -18.1184 -12.1129 0 
819 1 -17.5238 -13.0595 0 
821 1 -16.3913 -13.0083 0 
823 1 -15.2575 -12.9559 0 
825 1 -14.1253 -12.9024 0 
827 1 -12.9955 -12.846 0 
829 1 -11.8664 -12.7879 0 
831 1 -10.7354 -12.73 0 
833 1 -9.60356 -12.6736 0 
835 1 -8.47346 -12.6146 0 
837 1 -7.3477 -12.5506 0 
839 1 -6.22444 -12.4835 0 
841 1 -5.10101 -12.4188 0 
843 1 -3.97833 -12.3561 0 
845 1 -2.85838 -12.2935 0 
847 1 -1.73889 -12.2359 0 
750 1 -0.0300698 -13.1602 0 
849 1 -0.618179 -12.1861 0 
851 1 0.502388 -12.1405 0 
752 1 1.09029 -13.1166 0 
853 1 1.62386 -12.1 0 
754 1 2.21249 -13.0782 0 
855 1 2.74606 -12.0612 0 
756 1 3.33452 -13.0434 0 
758 1 4.45756 -13.0141 0 
760 1 5.58041 -12.9891 0 
762 1 6.70467 -12.9679 0 
764 1 7.82962 -12.9497 0 
766 1 8.95476 -12.9334 0 
768 1 10.0834 -12.9177 0 
770 1 11.2133 -12.9006 0 
772 1 12.3423 -12.8902 0 
774 1 13.4698 -12.8785 0 
776 1 14.6012 -12.8626 0 
778 1 15.733 -12.8439 0 
780 1 16.8637 -12.834 0 
782 1 17.9934 -12.8276 0 
784 1 19.1255 -12.8224 0 
786 1 20.2554 -12.8168 0 
788 1 21.3818 -12.8157 0 
790 1 22.5075 -12.8134 0 
792 1 23.6376 -12.8087 0 
794 1 24.7703 -12.8011 0 
796 2 25.9 -12.7934 0 
798 2 27.0306 -12.7893 0 
800 2 28.1612 -12.7854 0 
901 2 -27.7557 -11.5099 0 
903 2 -26.6279 -11.4735 0 
905 2 -25.4997 -11.4364 0 
907 2 -24.3713 -11.3985 0 
909 1 -23.2399 -11.3572 0 
911 1 -22.1099 -11.3122 0 
913 1 -20.9787 -11.2639 0 
915 1 -19.8463 -11.2141 0 
917 1 -18.7134 -11.1654 0 
820 1 -16.9858 -12.062 0 
919 1 -17.5799 -11.1165 0 
822 1 -15.8522 -12.0095 0 
921 1 -16.447 -11.064 0 
824 1 -14.7201 -11.9539 0 
923 1 -15.3167 -11.0071 0 
826 1 -13.591 -11.8957 0 
925 1 -14.1867 -10.9481 0 
828 1 -12.4616 -11.8372 0 
927 1 -13.0553 -10.8893 0 
830 1 -11.3287 -11.7793 0 
832 1 -10.1948 -11.722 0 
834 1 -9.06459 -11.6612 0 
836 1 -7.93903 -11.5946 0 
838 1 -6.81419 -11.5267 0 
840 1 -5.68972 -11.4601 0 
842 1 -4.56802 -11.3943 0 
844 1 -3.44862 -11.3274 0 
846 1 -2.32867 -11.2665 0 
848 1 -1.20665 -11.2136 0 
850 1 -0.0848912 -11.1639 0 
852 1 1.03713 -11.1197 0 
854 1 2.15899 -11.0802 0 
857 1 3.86909 -12.0292 0 
856 1 3.28291 -11.0463 0 
859 1 4.99181 -12.0008 0 
858 1 4.40607 -11.015 0 
861 1 6.11577 -11.9795 0 
860 1 5.52988 -10.9907 0 
863 1 7.24095 -11.9598 0 
862 1 6.65246 -10.9706 0 
865 1 8.36808 -11.9432 0 
864 1 7.77848 -10.9554 0 
867 1 9.49573 -11.9299 0 
869 1 10.6256 -11.9152 0 
871 1 11.7574 -11.9012 0 
873 1 12.8881 -11.8907 0 
875 1 14.0199 -11.8819 0 
877 1 15.1521 -11.8643 0 
879 1 16.285 -11.8498 0 
881 1 17.4146 -11.8416 0 
883 1 18.5444 -11.8375 0 
885 1 19.6766 -11.8308 0 
887 1 20.8086 -11.8265 0 
889 1 21.9358 -11.8237 0 
891 1 23.0619 -11.8214 0 
893 1 24.1919 -11.8182 0 
895 2 25.3239 -11.8103 0 
897 2 26.4549 -11.8064 0 
899 2 27.586 -11.8028 0 
902 2 -27.2202 -10.5209 0 
904 2 -26.0925 -10.4842 0 
906 2 -24.9646 -10.4468 0 
908 1 -23.8367 -10.4078 0 
910 1 -22.7063 -10.364 0 
912 1 -21.5752 -10.3183 0 
914 1 -20.4432 -10.2678 0 
916 1 -19.3105 -10.2189 0 
918 1 -18.1768 -10.1707 0 
920 1 -17.0447 -10.1183 0 
922 1 -15.9152 -10.0619 0 
924 1 -14.7841 -10.0033 0 
926 1 -13.6511 -9.94421 0 
928 1 -12.5179 -9.88575 0 
929 1 -11.922 -10.8315 0 
930 1 -11.3837 -9.8271 0 
931 1 -10.7875 -10.7726 0 
932 1 -10.2494 -9.76297 0 
933 1 -9.65603 -10.7099 0 
935 1 -8.52797 -10.642 0 
937 1 -7.40156 -10.5726 0 
939 1 -6.27714 -10.5037 0 
941 1 -5.15448 -10.433 0 
943 1 -4.03453 -10.3625 0 
945 1 -2.91296 -10.2968 0 
947 1 -1.7898 -10.2379 0 
949 1 -0.667822 -10.1844 0 
951 1 0.453997 -10.1367 0 
953 1 1.57681 -10.0944 0 
955 1 2.70116 -10.0605 0 
957 1 3.82514 -10.0302 0 
959 1 4.95052 -10.0051 0 
961 1 6.07545 -9.98039 0 
963 1 7.19954 -9.96513 0 
965 1 8.32321 -9.95111 0 
866 1 8.90595 -10.9394 0 
967 1 9.45195 -9.94054 0 
868 1 10.036 -10.9289 0 
969 1 10.5819 -9.92908 0 
870 1 11.168 -10.9157 0 
971 1 11.7158 -9.91922 0 
872 1 12.3008 -10.903 0 
973 1 12.8492 -9.90629 0 
874 1 13.4321 -10.8956 0 
975 1 13.982 -9.90004 0 
876 1 14.5652 -10.8858 0 
977 1 15.1137 -9.89065 0 
878 1 15.701 -10.8695 0 
979 1 16.2487 -9.87759 0 
880 1 16.8369 -10.8562 0 
981 1 17.3852 -9.8648 0 
882 1 17.9683 -10.8511 0 
983 1 18.5199 -9.86149 0 
884 1 19.0973 -10.8471 0 
985 1 19.6502 -9.85678 0 
886 1 20.2289 -10.8406 0 
987 1 20.7833 -9.85081 0 
888 1 21.3618 -10.8353 0 
890 1 22.4904 -10.8316 0 
989 1 21.9157 -9.84242 0 
892 1 23.6175 -10.8316 0 
991 1 23.045 -9.84198 0 
894 1 24.7462 -10.8269 0 
993 1 24.1727 -9.84223 0 
896 2 25.8793 -10.8234 0 
995 2 25.3037 -9.84035 0 
898 2 27.0108 -10.8201 0 
997 2 26.4357 -9.83726 0 
900 2 28.1423 -10.817 0 
999 2 27.5677 -9.8344 0 
1001 2 -27.8125 -9.56805 0 
1003 2 -26.6854 -9.5318 0 
1005 2 -25.5581 -9.49477 0 
1007 2 -24.4305 -9.45693 0 
1009 1 -23.302 -9.41603 0 
1011 1 -22.173 -9.37122 0 
1013 1 -21.0424 -9.32355 0 
1015 1 -19.9093 -9.2739 0 
1017 1 -18.7765 -9.22465 0 
1019 1 -17.6449 -9.17271 0 
1021 1 -16.5139 -9.11725 0 
1023 1 -15.3824 -9.05937 0 
1025 1 -14.2492 -9.0002 0 
1027 1 -13.1151 -8.94219 0 
1029 1 -11.9795 -8.88396 0 
1031 1 -10.844 -8.81968 0 
934 1 -9.11802 -9.69376 0 
1033 1 -9.71129 -8.74859 0 
936 1 -7.99055 -9.62216 0 
1035 1 -8.58234 -8.67454 0 
938 1 -6.86443 -9.54873 0 
1037 1 -7.45387 -8.59901 0 
940 1 -5.73986 -9.47552 0 
1039 1 -6.32544 -8.52276 0 
942 1 -4.61569 -9.40101 0 
944 1 -3.49236 -9.3286 0 
946 1 -2.3706 -9.26417 0 
948 1 -1.2492 -9.20402 0 
950 1 -0.129404 -9.15102 0 
952 1 0.992237 -9.10808 0 
954 1 2.11517 -9.07177 0 
956 1 3.23969 -9.03957 0 
958 1 4.36481 -9.01546 0 
960 1 5.49075 -8.99509 0 
962 1 6.61837 -8.97467 0 
964 1 7.74439 -8.9582 0 
966 1 8.87073 -8.95008 0 
968 1 9.99754 -8.93953 0 
970 1 11.1293 -8.93311 0 
972 1 12.2626 -8.92225 0 
974 1 13.3985 -8.91283 0 
976 1 14.5333 -8.90297 0 
978 1 15.6682 -8.89811 0 
980 1 16.801 -8.88509 0 
982 1 17.9369 -8.87617 0 
984 1 19.0704 -8.87097 0 
986 1 20.204 -8.86872 0 
988 1 21.3385 -8.85871 0 
990 1 22.472 -8.8518 0 
992 1 23.6005 -8.85321 0 
994 1 24.7268 -8.85428 0 
996 2 25.8608 -8.85435 0 
998 2 26.9933 -8.85174 0 
1000 2 28.1257 -8.84931 0 
1002 2 -27.2783 -8.57905 0 
1101 2 -27.8711 -7.62598 0 
1004 2 -26.1516 -8.54247 0 
1103 2 -26.7449 -7.58983 0 
1006 2 -25.0246 -8.50509 0 
1105 2 -25.6186 -7.5529 0 
1008 1 -23.898 -8.4664 0 
1107 2 -24.492 -7.51516 0 
1010 1 -22.7701 -8.42343 0 
1012 1 -21.64 -8.37877 0 
1014 1 -20.5077 -8.33036 0 
1016 1 -19.377 -8.27945 0 
1018 1 -18.2456 -8.2275 0 
1020 1 -17.1142 -8.17357 0 
1022 1 -15.9831 -8.11593 0 
1024 1 -14.8502 -8.05715 0 
1026 1 -13.7149 -7.99997 0 
1028 1 -12.5792 -7.94268 0 
1030 1 -11.4445 -7.87834 0 
1032 1 -10.312 -7.80612 0 
1034 1 -9.18045 -7.73075 0 
1036 1 -8.04906 -7.65465 0 
1038 1 -6.91799 -7.57519 0 
1041 1 -5.19867 -8.44394 0 
1040 1 -5.79031 -7.49203 0 
1043 1 -4.0756 -8.36557 0 
1042 1 -4.66288 -7.40648 0 
1045 1 -2.95144 -8.29276 0 
1044 1 -3.53793 -7.32762 0 
1047 1 -1.83232 -8.22599 0 
1049 1 -0.714987 -8.16749 0 
1051 1 0.405701 -8.12235 0 
1053 1 1.52941 -8.08262 0 
1055 1 2.65392 -8.04973 0 
1057 1 3.7788 -8.0219 0 
1059 1 4.90397 -8.00052 0 
1061 1 6.03073 -7.9854 0 
1063 1 7.16045 -7.96926 0 
1065 1 8.28886 -7.95579 0 
1067 1 9.41833 -7.9487 0 
1069 1 10.5469 -7.94172 0 
1071 1 11.6771 -7.93546 0 
1073 1 12.8116 -7.9298 0 
1075 1 13.9459 -7.91688 0 
1077 1 15.0833 -7.91055 0 
1079 1 16.2191 -7.90506 0 
1081 1 17.3553 -7.89607 0 
1083 1 18.4914 -7.88574 0 
1085 1 19.6255 -7.8824 0 
1087 1 20.7599 -7.87829 0 
1089 1 21.8942 -7.86761 0 
1091 1 23.0277 -7.86418 0 
1093 1 24.1569 -7.8648 0 
1095 2 25.2861 -7.87134 0 
1097 2 26.419 -7.86899 0 
1099 2 27.5519 -7.8668 0 
1102 2 -27.3381 -6.63684 0 
1104 2 -26.2124 -6.60035 0 
1106 2 -25.0865 -6.56307 0 
1108 1 -23.9615 -6.52488 0 
1109 1 -23.3654 -7.47527 0 
1110 1 -22.8355 -6.4845 0 
1111 1 -22.2368 -7.43174 0 
1112 1 -21.7067 -6.43993 0 
1113 1 -21.1077 -7.38642 0 
1114 1 -20.5779 -6.39238 0 
1115 1 -19.9786 -7.33528 0 
1116 1 -19.4495 -6.34074 0 
1117 1 -18.8488 -7.28413 0 
1119 1 -17.717 -7.23006 0 
1121 1 -16.5859 -7.17376 0 
1123 1 -15.4536 -7.11553 0 
1125 1 -14.3184 -7.05916 0 
1127 1 -13.1828 -7.00202 0 
1129 1 -12.0493 -6.93805 0 
1131 1 -10.9166 -6.86589 0 
1133 1 -9.78224 -6.79081 0 
1135 1 -8.64793 -6.71287 0 
1137 1 -7.51656 -6.63146 0 
1139 1 -6.38444 -6.543 0 
1141 1 -5.2556 -6.45232 0 
1143 1 -4.13094 -6.36585 0 
1145 1 -3.00936 -6.28197 0 
1046 1 -2.41641 -7.24911 0 
1147 1 -1.89076 -6.20113 0 
1048 1 -1.29805 -7.1793 0 
1050 1 -0.178157 -7.13337 0 
1052 1 0.945136 -7.09529 0 
1054 1 2.07223 -7.062 0 
1056 1 3.19997 -7.03161 0 
1058 1 4.3256 -7.00633 0 
1060 1 5.4501 -6.98659 0 
1062 1 6.57518 -6.97688 0 
1064 1 7.70526 -6.96452 0 
1066 1 8.83668 -6.95594 0 
1068 1 9.96878 -6.95083 0 
1070 1 11.0987 -6.94445 0 
1072 1 12.2313 -6.94079 0 
1074 1 13.3654 -6.93579 0 
1076 1 14.5008 -6.92362 0 
1078 1 15.6382 -6.91819 0 
1080 1 16.7725 -6.91473 0 
1082 1 17.9088 -6.90728 0 
1084 1 19.0457 -6.89606 0 
1086 1 20.1833 -6.89386 0 
1088 1 21.3183 -6.88622 0 
1090 1 22.452 -6.87932 0 
1092 1 23.5829 -6.87715 0 
1094 1 24.7137 -6.88294 0 
1096 2 25.8451 -6.88616 0 
1098 2 26.9784 -6.88422 0 
1100 2 28.1116 -6.88241 0 
1201 2 -27.9311 -5.68349 0 