ITEM: TIMESTEP
2100
ITEM: NUMBER OF ATOMS
2850
ITEM: BOX BOUNDS ff ff pp
-42.092 42.092
-42.092 42.092
-0.280613 0.280613
ITEM: ATOMS id type xu yu zu 
1 2 -27.3398 -28.9988 0 
3 2 -26.2107 -28.9642 0 
5 2 -25.0816 -28.9291 0 
7 2 -23.9525 -28.8936 0 
9 2 -22.8235 -28.8577 0 
11 2 -21.6944 -28.8213 0 
13 2 -20.5655 -28.7844 0 
15 2 -19.4366 -28.7472 0 
17 2 -18.3079 -28.7095 0 
19 2 -17.1793 -28.6715 0 
21 2 -16.0508 -28.6331 0 
23 2 -14.9226 -28.5944 0 
25 2 -13.7947 -28.5554 0 
27 2 -12.667 -28.5163 0 
29 2 -11.5396 -28.477 0 
31 2 -10.4126 -28.4376 0 
33 2 -9.28592 -28.3982 0 
35 2 -8.15967 -28.3589 0 
37 2 -7.03386 -28.3198 0 
39 2 -5.90848 -28.281 0 
2 2 -26.7941 -28.0086 0 
4 2 -25.6649 -27.9736 0 
6 2 -24.5357 -27.9381 0 
8 2 -23.4065 -27.902 0 
10 2 -22.2773 -27.8656 0 
12 2 -21.1481 -27.8286 0 
14 2 -20.019 -27.7912 0 
16 2 -18.89 -27.7533 0 
18 2 -17.7611 -27.715 0 
20 2 -16.6324 -27.6763 0 
22 2 -15.5039 -27.6373 0 
24 2 -14.3755 -27.5979 0 
26 2 -13.2475 -27.5582 0 
28 2 -12.1197 -27.5183 0 
30 2 -10.9923 -27.4783 0 
32 2 -9.86522 -27.4382 0 
34 2 -8.73856 -27.3981 0 
36 2 -7.61233 -27.3581 0 
38 2 -6.48656 -27.3184 0 
40 2 -5.36126 -27.2789 0 
41 2 -4.78357 -28.2426 0 
42 2 -4.23645 -27.24 0 
43 2 -3.65912 -28.2046 0 
44 2 -3.11213 -27.2015 0 
45 2 -2.53513 -28.1673 0 
46 2 -1.98828 -27.1638 0 
47 2 -1.41159 -28.1307 0 
48 2 -0.8649 -27.1269 0 
49 2 -0.288464 -28.095 0 
51 2 0.834263 -28.0602 0 
53 2 1.95663 -28.0264 0 
55 2 3.07869 -27.9937 0 
57 2 4.20048 -27.9622 0 
59 2 5.32207 -27.9319 0 
61 2 6.4435 -27.9029 0 
63 2 7.56483 -27.8752 0 
65 2 8.68613 -27.8488 0 
67 2 9.80743 -27.8237 0 
69 2 10.9288 -27.8 0 
71 2 12.0503 -27.7775 0 
73 2 13.1719 -27.7563 0 
75 2 14.2937 -27.7363 0 
77 2 15.4157 -27.7174 0 
79 2 16.538 -27.6997 0 
81 2 17.6605 -27.683 0 
83 2 18.7832 -27.6673 0 
85 2 19.9063 -27.6526 0 
87 2 21.0296 -27.6388 0 
89 2 22.1532 -27.6258 0 
91 2 23.2771 -27.6136 0 
93 2 24.4012 -27.6022 0 
95 2 25.5256 -27.5914 0 
97 2 26.6503 -27.5812 0 
99 2 27.7752 -27.5717 0 
101 2 -27.378 -27.0533 0 
103 2 -26.2487 -27.0183 0 
102 2 -26.833 -26.0633 0 
105 2 -25.1194 -26.9828 0 
104 2 -25.7037 -26.0278 0 
107 2 -23.9901 -26.9468 0 
106 2 -24.5742 -25.9918 0 
109 2 -22.8607 -26.9102 0 
108 1 -23.4426 -25.9545 0 
111 2 -21.7314 -26.8732 0 
113 2 -20.6021 -26.8357 0 
115 2 -19.4729 -26.7977 0 
117 2 -18.3437 -26.7591 0 
119 2 -17.2147 -26.7202 0 
121 2 -16.0858 -26.6808 0 
123 2 -14.9572 -26.641 0 
125 2 -13.8287 -26.6009 0 
127 2 -12.7006 -26.5605 0 
129 2 -11.5727 -26.5198 0 
131 2 -10.4452 -26.479 0 
133 2 -9.31813 -26.4382 0 
135 2 -8.19146 -26.3973 0 
137 2 -7.06526 -26.3566 0 
139 2 -5.93954 -26.3162 0 
141 2 -4.81433 -26.2762 0 
143 2 -3.68963 -26.2366 0 
145 2 -2.56545 -26.1977 0 
147 2 -1.44177 -26.1596 0 
50 2 0.258046 -27.0909 0 
149 2 -0.318563 -26.1224 0 
52 2 1.38059 -27.056 0 
151 2 0.804196 -26.0862 0 
54 2 2.50279 -27.0222 0 
153 2 1.92656 -26.0512 0 
56 2 3.62468 -26.9896 0 
155 2 3.04857 -26.0174 0 
58 2 4.74633 -26.9582 0 
157 2 4.1703 -25.9849 0 
60 2 5.86779 -26.9282 0 
159 2 5.2918 -25.9538 0 
62 2 6.98913 -26.8996 0 
64 2 8.11041 -26.8723 0 
66 2 9.23169 -26.8465 0 
68 2 10.353 -26.822 0 
70 2 11.4745 -26.7989 0 
72 2 12.596 -26.7771 0 
74 2 13.7178 -26.7566 0 
76 2 14.8398 -26.7373 0 
78 2 15.962 -26.7192 0 
80 2 17.0845 -26.7023 0 
82 2 18.2073 -26.6863 0 
84 2 19.3304 -26.6714 0 
86 2 20.4538 -26.6575 0 
88 2 21.5774 -26.6444 0 
90 2 22.7014 -26.6321 0 
92 2 23.8256 -26.6206 0 
94 2 24.9501 -26.6098 0 
96 2 26.0749 -26.5996 0 
98 2 27.2 -26.5901 0 
100 2 28.3253 -26.5811 0 
201 2 -27.4179 -25.1085 0 
203 2 -26.2885 -25.0731 0 
205 2 -25.159 -25.0372 0 
207 2 -24.0295 -25.0007 0 
209 1 -22.8974 -24.9616 0 
110 1 -22.3133 -25.9172 0 
211 1 -21.7674 -24.9232 0 
112 1 -21.1837 -25.8793 0 
213 1 -20.6376 -24.885 0 
114 1 -20.0542 -25.8408 0 
215 1 -19.5078 -24.846 0 
116 1 -18.925 -25.8022 0 
217 1 -18.3783 -24.8056 0 
118 1 -17.7952 -25.7621 0 
120 1 -16.6654 -25.723 0 
122 1 -15.5363 -25.6822 0 
124 1 -14.4081 -25.6422 0 
126 1 -13.2798 -25.6004 0 
128 1 -12.1514 -25.5588 0 
130 1 -11.0237 -25.5175 0 
132 1 -9.89698 -25.477 0 
134 1 -8.76992 -25.436 0 
136 1 -7.64316 -25.3915 0 
138 1 -6.51837 -25.35 0 
140 1 -5.39332 -25.3119 0 
142 1 -4.26829 -25.2688 0 
144 1 -3.14472 -25.2295 0 
146 1 -2.02104 -25.1919 0 
148 1 -0.897694 -25.153 0 
150 1 0.225247 -25.116 0 
152 1 1.34855 -25.0798 0 
154 1 2.47064 -25.0436 0 
156 1 3.59254 -25.0103 0 
158 1 4.71397 -24.9782 0 
160 1 5.83565 -24.9486 0 
161 2 6.41316 -25.9242 0 
162 1 6.95735 -24.9189 0 
163 2 7.53443 -25.896 0 
164 1 8.0787 -24.8914 0 
165 2 8.65568 -25.8693 0 
167 2 9.77697 -25.844 0 
166 1 9.19973 -24.865 0 
169 2 10.8984 -25.8202 0 
168 1 10.321 -24.8406 0 
171 2 12.0199 -25.7978 0 
170 1 11.4425 -24.8179 0 
173 2 13.1416 -25.7768 0 
175 2 14.2636 -25.7571 0 
177 2 15.3858 -25.7386 0 
179 2 16.5083 -25.7213 0 
181 2 17.6311 -25.7052 0 
183 2 18.7543 -25.6901 0 
185 2 19.8777 -25.6759 0 
187 2 21.0014 -25.6627 0 
189 2 22.1254 -25.6504 0 
191 2 23.2498 -25.6388 0 
193 2 24.3744 -25.628 0 
195 2 25.4993 -25.6179 0 
197 2 26.6245 -25.6084 0 
199 2 27.75 -25.5994 0 
202 2 -26.8739 -24.1187 0 
204 2 -25.7444 -24.0828 0 
206 2 -24.6148 -24.0464 0 
208 1 -23.4842 -24.0085 0 
210 1 -22.3537 -23.9683 0 
212 1 -21.2226 -23.9295 0 
214 1 -20.0923 -23.8908 0 
216 1 -18.9626 -23.8505 0 
219 1 -17.2478 -24.7656 0 
218 1 -17.832 -23.8096 0 
221 1 -16.1179 -24.7246 0 
220 1 -16.702 -23.7681 0 
222 1 -15.5722 -23.7252 0 
223 1 -14.9884 -24.6828 0 
224 1 -14.4425 -23.6822 0 
225 1 -13.8611 -24.6409 0 
227 1 -12.7326 -24.5996 0 
229 1 -11.6037 -24.5574 0 
231 1 -10.4761 -24.5145 0 
233 1 -9.34995 -24.4747 0 
235 1 -8.22432 -24.4308 0 
237 1 -7.09742 -24.3855 0 
239 1 -5.97154 -24.3461 0 
241 1 -4.84857 -24.304 0 
243 1 -3.72454 -24.2612 0 
245 1 -2.60043 -24.2237 0 
247 1 -1.4778 -24.1847 0 
249 1 -0.354307 -24.1459 0 
251 1 0.768885 -24.1083 0 
253 1 1.89075 -24.0703 0 
255 1 3.01306 -24.0361 0 
257 1 4.13514 -24.0029 0 
259 1 5.25642 -23.9722 0 
261 1 6.377 -23.942 0 
263 1 7.4985 -23.9137 0 
265 1 8.61996 -23.8859 0 
267 1 9.74114 -23.8613 0 
269 1 10.863 -23.8382 0 
271 1 11.9848 -23.816 0 
172 1 12.5642 -24.7969 0 
273 1 13.1071 -23.796 0 
174 1 13.686 -24.7764 0 
275 1 14.2304 -23.7779 0 
176 1 14.8087 -24.7587 0 
277 1 15.3533 -23.7603 0 
178 1 15.9313 -24.7406 0 
279 1 16.4763 -23.7421 0 
180 1 17.0531 -24.7241 0 
281 1 17.5996 -23.7267 0 
182 1 18.1757 -24.7088 0 
283 1 18.7226 -23.7122 0 
184 1 19.3 -24.6938 0 
285 1 19.8471 -23.6979 0 
186 1 20.4247 -24.6802 0 
287 1 20.9717 -23.6856 0 
188 1 21.5483 -24.6682 0 
289 1 22.0968 -23.6756 0 
190 1 22.6726 -24.6569 0 
291 1 23.2222 -23.6645 0 
192 1 23.7982 -24.6465 0 
293 1 24.3477 -23.6549 0 
194 1 24.9243 -24.6365 0 
295 2 25.4729 -23.6443 0 
196 2 26.0488 -24.6264 0 
198 2 27.1745 -24.6176 0 
200 2 28.3003 -24.6093 0 
301 2 -27.4598 -23.1644 0 
303 2 -26.3303 -23.1287 0 
305 2 -25.2007 -23.0924 0 
307 2 -24.071 -23.0555 0 
309 1 -22.9401 -23.0148 0 
311 1 -21.8092 -22.9756 0 
313 1 -20.6778 -22.9362 0 
315 1 -19.5472 -22.8959 0 
317 1 -18.4167 -22.8543 0 
319 1 -17.2864 -22.8125 0 
321 1 -16.1574 -22.769 0 
323 1 -15.0271 -22.7258 0 
226 1 -13.3143 -23.6395 0 
325 1 -13.8981 -22.6812 0 
327 1 -12.7686 -22.6388 0 
228 1 -12.1861 -23.5986 0 
329 1 -11.6406 -22.5958 0 
230 1 -11.0585 -23.5555 0 
331 1 -10.5129 -22.5525 0 
232 1 -9.93029 -23.5119 0 
333 1 -9.38498 -22.5069 0 
234 1 -8.80484 -23.4692 0 
236 1 -7.67872 -23.4246 0 
238 1 -6.55135 -23.3813 0 
240 1 -5.42791 -23.3378 0 
242 1 -4.30427 -23.2957 0 
244 1 -3.17867 -23.2569 0 
246 1 -2.05562 -23.2159 0 
248 1 -0.932325 -23.1764 0 
250 1 0.190273 -23.1372 0 
252 1 1.3126 -23.0984 0 
254 1 2.43552 -23.0615 0 
256 1 3.55665 -23.0272 0 
258 1 4.67683 -22.9957 0 
260 1 5.7977 -22.9647 0 
262 1 6.91975 -22.9355 0 
264 1 8.04139 -22.9078 0 
266 1 9.16313 -22.881 0 
268 1 10.2854 -22.8577 0 
270 1 11.4078 -22.8356 0 
272 1 12.5306 -22.8156 0 
274 1 13.6531 -22.7966 0 
276 1 14.7767 -22.7793 0 
278 1 15.9 -22.7613 0 
280 1 17.024 -22.7448 0 
282 1 18.1478 -22.7291 0 
284 1 19.2721 -22.7165 0 
286 1 20.397 -22.7031 0 
288 1 21.5212 -22.6935 0 
290 1 22.6459 -22.6829 0 
292 1 23.7715 -22.6724 0 
294 1 24.8969 -22.6626 0 
297 2 26.5987 -23.6355 0 
296 2 26.0228 -22.6533 0 
299 2 27.7248 -23.6273 0 
298 2 27.149 -22.6452 0 
300 2 28.2755 -22.6376 0 
302 2 -26.9167 -22.1747 0 
304 2 -25.7871 -22.1385 0 
306 2 -24.6574 -22.1018 0 
308 1 -23.5264 -22.0626 0 
310 1 -22.395 -22.022 0 
312 1 -21.2639 -21.9818 0 
314 1 -20.1328 -21.9414 0 
316 1 -19.0029 -21.8998 0 
318 1 -17.8715 -21.8574 0 
320 1 -16.7412 -21.8134 0 
322 1 -15.6112 -21.7698 0 
324 1 -14.482 -21.7248 0 
326 1 -13.3525 -21.6811 0 
328 1 -12.2235 -21.6355 0 
330 1 -11.0956 -21.5917 0 
332 1 -9.96821 -21.5478 0 
334 1 -8.8406 -21.5009 0 
335 1 -8.25951 -22.4624 0 
336 1 -7.7146 -21.4553 0 
337 1 -7.13385 -22.4189 0 
338 1 -6.59076 -21.4101 0 
339 1 -6.00867 -22.3725 0 
340 1 -5.46573 -21.3647 0 
341 1 -4.88412 -22.3298 0 
343 1 -3.75841 -22.2909 0 
345 1 -2.6351 -22.248 0 
347 1 -1.51175 -22.2076 0 
349 1 -0.388497 -22.1668 0 
351 1 0.733967 -22.1268 0 
353 1 1.85652 -22.0893 0 
355 1 2.97898 -22.0517 0 
357 1 4.09999 -22.0175 0 
359 1 5.21969 -21.9866 0 
361 1 6.34089 -21.9572 0 
363 1 7.46297 -21.9286 0 
365 1 8.58477 -21.9013 0 
367 1 9.70728 -21.8766 0 
369 1 10.8306 -21.8543 0 
371 1 11.9542 -21.8355 0 
373 1 13.0773 -21.8159 0 
375 1 14.201 -21.798 0 
377 1 15.3238 -21.7797 0 
379 1 16.4474 -21.763 0 
381 1 17.571 -21.7475 0 
383 1 18.6956 -21.734 0 
385 1 19.82 -21.7221 0 
387 1 20.9451 -21.7099 0 
389 1 22.0694 -21.7006 0 
391 1 23.1952 -21.6903 0 
393 1 24.3209 -21.6801 0 
395 2 25.4466 -21.6709 0 
397 2 26.573 -21.6629 0 
399 2 27.6998 -21.6554 0 
401 2 -27.5037 -21.2208 0 
403 2 -26.3741 -21.1849 0 
402 2 -26.9617 -20.2313 0 
405 2 -25.2445 -21.1483 0 
404 2 -25.8321 -20.1949 0 
407 2 -24.1147 -21.111 0 
409 1 -22.9829 -21.0704 0 
411 1 -21.8517 -21.0282 0 
413 1 -20.7191 -20.9876 0 
415 1 -19.5874 -20.9455 0 
417 1 -18.4567 -20.9031 0 
419 1 -17.3263 -20.8586 0 
421 1 -16.1962 -20.8145 0 
423 1 -15.0659 -20.7696 0 
425 1 -13.9369 -20.7244 0 
427 1 -12.8087 -20.679 0 
429 1 -11.6785 -20.633 0 
431 1 -10.5505 -20.5876 0 
433 1 -9.42395 -20.5422 0 
435 1 -8.29663 -20.4942 0 
437 1 -7.17052 -20.4465 0 
439 1 -6.04522 -20.4018 0 
342 1 -4.33934 -21.3247 0 
441 1 -4.9193 -20.3593 0 
344 1 -3.21604 -21.2812 0 
443 1 -3.79572 -20.3138 0 
346 1 -2.09212 -21.2393 0 
445 1 -2.67182 -20.2721 0 
348 1 -0.969129 -21.1974 0 
447 1 -1.54849 -20.2281 0 
350 1 0.153617 -21.1561 0 
352 1 1.27674 -21.1162 0 
354 1 2.39836 -21.0784 0 
356 1 3.52035 -21.0422 0 
358 1 4.6414 -21.0081 0 
360 1 5.76259 -20.9775 0 
362 1 6.88383 -20.9495 0 
364 1 8.00588 -20.9223 0 
366 1 9.12866 -20.8962 0 
368 1 10.2521 -20.873 0 
370 1 11.3757 -20.854 0 
372 1 12.498 -20.8349 0 
374 1 13.6214 -20.8163 0 
376 1 14.7453 -20.7985 0 
378 1 15.8695 -20.7822 0 
380 1 16.9938 -20.766 0 
382 1 18.1184 -20.7521 0 
384 1 19.2429 -20.739 0 
386 1 20.3672 -20.7278 0 
388 1 21.4923 -20.7169 0 
390 1 22.618 -20.7077 0 
392 1 23.7434 -20.6978 0 
394 1 24.8696 -20.6887 0 
396 2 25.9969 -20.6804 0 
398 2 27.1238 -20.673 0 
400 2 28.251 -20.6661 0 
501 2 -27.5497 -19.2779 0 
503 2 -26.4202 -19.2417 0 
505 2 -25.2906 -19.2049 0 
406 2 -24.7023 -20.1579 0 
507 2 -24.1608 -19.1673 0 
408 1 -23.571 -20.119 0 
509 1 -23.0278 -19.1251 0 
410 1 -22.4389 -20.0762 0 
511 1 -21.8953 -19.0834 0 
412 1 -21.306 -20.0352 0 
513 1 -20.7638 -19.0418 0 
414 1 -20.1738 -19.9927 0 
416 1 -19.0436 -19.9495 0 
418 1 -17.9131 -19.9058 0 
420 1 -16.7821 -19.8606 0 
422 1 -15.6516 -19.8156 0 
424 1 -14.5217 -19.7692 0 
426 1 -13.3923 -19.723 0 
428 1 -12.2628 -19.678 0 
430 1 -11.1341 -19.6298 0 
432 1 -10.007 -19.5825 0 
434 1 -8.88051 -19.5353 0 
436 1 -7.75346 -19.4856 0 
438 1 -6.62576 -19.4393 0 
440 1 -5.50011 -19.3949 0 
442 1 -4.37616 -19.3483 0 
444 1 -3.2514 -19.3041 0 
446 1 -2.12849 -19.2601 0 
448 1 -1.00529 -19.2157 0 
449 1 -0.425726 -20.1857 0 
450 1 0.117529 -19.1739 0 
451 1 0.696974 -20.1451 0 
452 1 1.23937 -19.1317 0 
453 1 1.81911 -20.1045 0 
454 1 2.36149 -19.093 0 
455 1 2.94089 -20.0677 0 
456 1 3.48335 -19.0564 0 
457 1 4.06239 -20.0317 0 
459 1 5.18418 -19.9995 0 
461 1 6.30624 -19.9699 0 
463 1 7.42883 -19.9428 0 
465 1 8.55156 -19.9165 0 
467 1 9.67444 -19.8927 0 
469 1 10.7975 -19.8714 0 
471 1 11.9199 -19.8526 0 
473 1 13.0435 -19.8344 0 
475 1 14.1676 -19.8168 0 
477 1 15.292 -19.8001 0 
479 1 16.4166 -19.7844 0 
481 1 17.5415 -19.7701 0 
483 1 18.6667 -19.7565 0 
485 1 19.7917 -19.7446 0 
487 1 20.9162 -19.7333 0 
489 1 22.0407 -19.7246 0 
491 1 23.1667 -19.7151 0 
493 1 24.2933 -19.706 0 
495 2 25.4205 -19.6978 0 
497 2 26.5477 -19.6905 0 
499 2 27.6751 -19.6838 0 
502 2 -27.0088 -18.2886 0 
504 2 -25.8793 -18.252 0 
506 2 -24.7497 -18.2147 0 
508 1 -23.6177 -18.1741 0 
510 1 -22.4867 -18.1323 0 
512 1 -21.355 -18.0904 0 
514 1 -20.2232 -18.0466 0 
515 1 -19.6326 -18.9971 0 
516 1 -19.0906 -18.0026 0 
517 1 -18.5005 -18.954 0 
518 1 -17.9588 -17.9567 0 
519 1 -17.3693 -18.9084 0 
520 1 -16.8265 -17.91 0 
521 1 -16.2386 -18.8623 0 
523 1 -15.1079 -18.8157 0 
525 1 -13.9768 -18.7681 0 
527 1 -12.8467 -18.7218 0 
529 1 -11.7186 -18.6742 0 
531 1 -10.5904 -18.6243 0 
533 1 -9.46242 -18.5757 0 
535 1 -8.33676 -18.5265 0 
537 1 -7.20974 -18.4796 0 
539 1 -6.08322 -18.4319 0 
541 1 -4.95854 -18.3842 0 
543 1 -3.83339 -18.3381 0 
545 1 -2.70962 -18.2913 0 
547 1 -1.58685 -18.2462 0 
549 1 -0.463925 -18.2031 0 
551 1 0.658076 -18.159 0 
553 1 1.78078 -18.1191 0 
555 1 2.90325 -18.0812 0 
557 1 4.02525 -18.0458 0 
458 1 4.60557 -19.0227 0 
559 1 5.14675 -18.013 0 
460 1 5.72729 -18.991 0 
561 1 6.26979 -17.9835 0 
462 1 6.84928 -18.963 0 
563 1 7.39239 -17.9555 0 
464 1 7.97145 -18.937 0 
565 1 8.51459 -17.9313 0 
466 1 9.0948 -18.9117 0 
567 1 9.63762 -17.9079 0 
468 1 10.2178 -18.8892 0 
569 1 10.7615 -17.8874 0 
470 1 11.3411 -18.8698 0 
472 1 12.4644 -18.852 0 
474 1 13.5884 -18.8344 0 
476 1 14.7121 -18.8175 0 
478 1 15.8363 -18.8013 0 
480 1 16.9628 -18.787 0 
482 1 18.089 -18.7745 0 
484 1 19.2145 -18.7611 0 
486 1 20.3392 -18.7506 0 
488 1 21.4647 -18.7406 0 
490 1 22.5895 -18.7327 0 
492 1 23.7163 -18.7237 0 
494 1 24.8439 -18.7149 0 
496 2 25.9714 -18.7078 0 
498 2 27.0991 -18.7012 0 
500 2 28.2271 -18.6951 0 
601 2 -27.5979 -17.3354 0 
603 2 -26.4686 -17.2992 0 
605 2 -25.3391 -17.2621 0 
607 2 -24.2094 -17.2244 0 
609 1 -23.0773 -17.1818 0 
611 1 -21.9457 -17.1394 0 
613 1 -20.8147 -17.0956 0 
615 1 -19.6828 -17.0517 0 
617 1 -18.5508 -17.0059 0 
619 1 -17.4181 -16.9596 0 
522 1 -15.6955 -17.8627 0 
621 1 -16.2849 -16.9117 0 
524 1 -14.5654 -17.8154 0 
623 1 -15.1538 -16.8629 0 
526 1 -13.4336 -17.7675 0 
625 1 -14.0231 -16.8156 0 
528 1 -12.3041 -17.7174 0 
627 1 -12.8929 -16.7638 0 
530 1 -11.1762 -17.668 0 
532 1 -10.0469 -17.6187 0 
534 1 -8.91911 -17.5679 0 
536 1 -7.79171 -17.5197 0 
538 1 -6.66645 -17.4713 0 
540 1 -5.54111 -17.4212 0 
542 1 -4.4155 -17.3735 0 
544 1 -3.29165 -17.3244 0 
546 1 -2.16823 -17.2768 0 
548 1 -1.04527 -17.2318 0 
550 1 0.0766021 -17.1881 0 
552 1 1.20034 -17.1459 0 
554 1 2.32245 -17.1061 0 
556 1 3.44463 -17.0691 0 
558 1 4.56688 -17.0339 0 
560 1 5.68957 -17.004 0 
562 1 6.81205 -16.9747 0 
564 1 7.93578 -16.9492 0 
566 1 9.05894 -16.9257 0 
568 1 10.1824 -16.9049 0 
571 1 11.8852 -17.8687 0 
570 1 11.3069 -16.8863 0 
573 1 13.0095 -17.8519 0 
572 1 12.4314 -16.8685 0 
575 1 14.134 -17.8348 0 
574 1 13.5561 -16.8519 0 
577 1 15.2589 -17.8179 0 
576 1 14.6816 -16.8363 0 
579 1 16.3849 -17.8047 0 
578 1 15.808 -16.8207 0 
581 1 17.5115 -17.791 0 
580 1 16.9339 -16.8085 0 
583 1 18.6368 -17.7788 0 
582 1 18.0595 -16.7949 0 
585 1 19.7628 -17.7663 0 
584 1 19.1854 -16.7839 0 
587 1 20.8877 -17.7575 0 
586 1 20.312 -16.7727 0 
589 1 22.0131 -17.7485 0 
588 1 21.4375 -16.7645 0 
591 1 23.1388 -17.7409 0 
590 1 22.5631 -16.7566 0 
593 1 24.2661 -17.7327 0 
592 1 23.6902 -16.7496 0 
595 2 25.3948 -17.725 0 
594 1 24.8181 -16.7428 0 
596 2 25.9465 -16.7357 0 
597 2 26.5229 -17.7186 0 
598 2 27.0751 -16.7299 0 
599 2 27.6512 -17.7126 0 
600 2 28.2039 -16.7246 0 
602 2 -27.0583 -16.3463 0 
604 2 -25.929 -16.3096 0 
606 2 -24.7995 -16.2721 0 
608 1 -23.6687 -16.2319 0 
610 1 -22.5373 -16.1888 0 
612 1 -21.406 -16.1449 0 
614 1 -20.2738 -16.1012 0 
616 1 -19.1415 -16.0562 0 
618 1 -18.0094 -16.0096 0 
620 1 -16.8765 -15.9631 0 
622 1 -15.7436 -15.9132 0 
624 1 -14.6119 -15.8636 0 
626 1 -13.4823 -15.8127 0 
628 1 -12.3517 -15.7597 0 
629 1 -11.7635 -16.7117 0 
630 1 -11.2201 -15.7086 0 
631 1 -10.6343 -16.6635 0 
632 1 -10.092 -15.6559 0 
633 1 -9.5056 -16.6118 0 
634 1 -8.9649 -15.6049 0 
635 1 -8.37704 -16.5617 0 
637 1 -7.25057 -16.5102 0 
639 1 -6.12602 -16.4601 0 
641 1 -4.99943 -16.4111 0 
643 1 -3.87495 -16.3594 0 
645 1 -2.75113 -16.3107 0 
647 1 -1.62674 -16.2628 0 
649 1 -0.503776 -16.2164 0 
651 1 0.618772 -16.1738 0 
653 1 1.74086 -16.131 0 
655 1 2.8635 -16.0928 0 
657 1 3.98566 -16.0565 0 
659 1 5.10885 -16.0239 0 
661 1 6.2305 -15.9933 0 
663 1 7.35299 -15.968 0 
665 1 8.47626 -15.9439 0 
667 1 9.6015 -15.9227 0 
669 1 10.7269 -15.904 0 
671 1 11.8509 -15.8856 0 
673 1 12.9749 -15.8679 0 
675 1 14.0995 -15.8528 0 
677 1 15.2255 -15.8387 0 
679 1 16.353 -15.8247 0 
681 1 17.4785 -15.8117 0 
683 1 18.6056 -15.8003 0 
685 1 19.7326 -15.7891 0 
687 1 20.8593 -15.7804 0 
689 1 21.9863 -15.7719 0 
691 1 23.1136 -15.7654 0 
693 1 24.2418 -15.7591 0 
695 2 25.3699 -15.7527 0 
697 2 26.4989 -15.7471 0 
699 2 27.6281 -15.742 0 
701 2 -27.6483 -15.3934 0 
703 2 -26.5193 -15.357 0 
705 2 -25.3901 -15.3199 0 
707 2 -24.2607 -15.282 0 
709 1 -23.1286 -15.2386 0 
711 1 -21.9969 -15.1943 0 
713 1 -20.8655 -15.1512 0 
715 1 -19.7334 -15.1077 0 
717 1 -18.6008 -15.0608 0 
719 1 -17.4681 -15.0136 0 
721 1 -16.336 -14.9648 0 
723 1 -15.2031 -14.9141 0 
725 1 -14.071 -14.8614 0 
727 1 -12.94 -14.8093 0 
729 1 -11.8096 -14.7572 0 
731 1 -10.6806 -14.702 0 
733 1 -9.55147 -14.6479 0 
636 1 -7.83786 -15.5526 0 
735 1 -8.42473 -14.5955 0 
638 1 -6.7108 -15.4989 0 
737 1 -7.29817 -14.5405 0 
640 1 -5.58374 -15.45 0 
739 1 -6.1701 -14.4885 0 
642 1 -4.45911 -15.3964 0 
644 1 -3.33477 -15.3444 0 
646 1 -2.2113 -15.2961 0 
648 1 -1.0878 -15.2466 0 
650 1 0.0357479 -15.2009 0 
652 1 1.15809 -15.1565 0 
654 1 2.28085 -15.1167 0 
656 1 3.4035 -15.078 0 
658 1 4.52643 -15.0451 0 
660 1 5.64919 -15.0133 0 
662 1 6.77296 -14.9856 0 
664 1 7.89568 -14.9615 0 
666 1 9.0203 -14.9414 0 
668 1 10.1446 -14.9211 0 
670 1 11.2693 -14.903 0 
672 1 12.3952 -14.8854 0 
674 1 13.5216 -14.8687 0 
676 1 14.6475 -14.8542 0 
678 1 15.7739 -14.8415 0 
680 1 16.8994 -14.8278 0 
682 1 18.0255 -14.817 0 
684 1 19.1525 -14.8061 0 
686 1 20.2811 -14.7958 0 
688 1 21.4086 -14.7884 0 
690 1 22.5365 -14.7811 0 
692 1 23.6649 -14.7753 0 
694 1 24.7938 -14.7697 0 
696 2 25.9226 -14.7642 0 
698 2 27.0521 -14.7592 0 
700 2 28.1818 -14.7547 0 
702 2 -27.11 -14.4044 0 
801 2 -27.7009 -13.4516 0 
704 2 -25.9811 -14.3676 0 
803 2 -26.5724 -13.4152 0 
706 2 -24.852 -14.3301 0 
805 2 -25.4437 -13.3781 0 
708 1 -23.7207 -14.2888 0 
807 2 -24.3146 -13.3401 0 
710 1 -22.5894 -14.2451 0 
809 1 -23.1839 -13.2965 0 
712 1 -21.4576 -14.201 0 
714 1 -20.3261 -14.1583 0 
716 1 -19.194 -14.1137 0 
718 1 -18.0608 -14.0653 0 
720 1 -16.9282 -14.0157 0 
722 1 -15.7954 -13.9652 0 
724 1 -14.6634 -13.9124 0 
726 1 -13.5314 -13.8593 0 
728 1 -12.3995 -13.8059 0 
730 1 -11.2705 -13.75 0 
732 1 -10.1409 -13.6945 0 
734 1 -9.01199 -13.638 0 
736 1 -7.88587 -13.5828 0 
738 1 -6.75809 -13.5294 0 
740 1 -5.63252 -13.4725 0 
741 1 -5.04562 -14.4343 0 
742 1 -4.5074 -13.4178 0 
743 1 -3.92088 -14.3804 0 
744 1 -3.38227 -13.3632 0 
745 1 -2.7957 -14.3283 0 
746 1 -2.25846 -13.3086 0 
747 1 -1.67214 -14.2771 0 
749 1 -0.548509 -14.2296 0 
751 1 0.57397 -14.1824 0 
753 1 1.69723 -14.1406 0 
755 1 2.81939 -14.101 0 
757 1 3.9425 -14.0655 0 
759 1 5.06625 -14.0331 0 
761 1 6.1909 -14.0048 0 
763 1 7.31523 -13.9783 0 
765 1 8.43918 -13.9579 0 
767 1 9.56326 -13.9376 0 
769 1 10.6887 -13.9202 0 
771 1 11.8151 -13.9031 0 
773 1 12.942 -13.8869 0 
775 1 14.0678 -13.8705 0 
777 1 15.1935 -13.8576 0 
779 1 16.3205 -13.8442 0 
781 1 17.4482 -13.8339 0 
783 1 18.5752 -13.8225 0 
785 1 19.7025 -13.8132 0 
787 1 20.8314 -13.8035 0 
789 1 21.9602 -13.7975 0 
791 1 23.0888 -13.7921 0 
793 1 24.2174 -13.7868 0 
795 2 25.3462 -13.7811 0 
797 2 26.4761 -13.7764 0 
799 2 27.6062 -13.772 0 
802 2 -27.164 -12.4626 0 
804 2 -26.0357 -12.4259 0 
806 2 -24.9071 -12.3884 0 
808 1 -23.7773 -12.3478 0 
810 1 -22.6463 -12.3057 0 
811 1 -22.0518 -13.2534 0 
812 1 -21.5145 -12.2623 0 
813 1 -20.919 -13.2094 0 
814 1 -20.3824 -12.2178 0 
815 1 -19.7866 -13.1651 0 
816 1 -19.2497 -12.1711 0 
817 1 -18.6546 -13.1185 0 
818 1 -18.1172 -12.1227 0 
819 1 -17.5216 -13.0687 0 
821 1 -16.3892 -13.0176 0 
823 1 -15.2576 -12.9646 0 
825 1 -14.1256 -12.9106 0 
827 1 -12.9927 -12.8569 0 
829 1 -11.8608 -12.7986 0 
831 1 -10.7305 -12.7422 0 
833 1 -9.60165 -12.6854 0 
835 1 -8.47336 -12.626 0 
837 1 -7.34459 -12.5718 0 
839 1 -6.21883 -12.5129 0 
841 1 -5.0934 -12.4559 0 
843 1 -3.96817 -12.3996 0 
845 1 -2.84488 -12.3429 0 
748 1 -1.13402 -13.2594 0 
847 1 -1.72089 -12.2909 0 
849 1 -0.59855 -12.239 0 
750 1 -0.011796 -13.21 0 
851 1 0.525623 -12.1925 0 
752 1 1.11124 -13.1668 0 
853 1 1.6479 -12.1494 0 
754 1 2.23449 -13.1242 0 
756 1 3.35796 -13.0872 0 
758 1 4.48143 -13.0541 0 
760 1 5.606 -13.0243 0 
762 1 6.73165 -12.9971 0 
764 1 7.85747 -12.9741 0 
766 1 8.98245 -12.9547 0 
768 1 10.1087 -12.9364 0 
770 1 11.2346 -12.9199 0 
772 1 12.3607 -12.9039 0 
774 1 13.4867 -12.8886 0 
776 1 14.6138 -12.8738 0 
778 1 15.7405 -12.8616 0 
780 1 16.8681 -12.8504 0 
782 1 17.9964 -12.8396 0 
784 1 19.1241 -12.8294 0 
786 1 20.2522 -12.8214 0 
788 1 21.3821 -12.8136 0 
790 1 22.5116 -12.8084 0 
792 1 23.6409 -12.8035 0 
794 1 24.7699 -12.7983 0 
796 2 25.9 -12.7934 0 
798 2 27.0306 -12.7893 0 
800 2 28.1612 -12.7854 0 
901 2 -27.7557 -11.5099 0 
903 2 -26.6279 -11.4735 0 
905 2 -25.4997 -11.4364 0 
907 2 -24.3713 -11.3985 0 
909 1 -23.2404 -11.3561 0 
911 1 -22.109 -11.3142 0 
913 1 -20.9775 -11.2696 0 
915 1 -19.8459 -11.2244 0 
917 1 -18.7136 -11.1768 0 
820 1 -16.9852 -12.0716 0 
919 1 -17.5818 -11.1259 0 
822 1 -15.8533 -12.0189 0 
921 1 -16.4506 -11.0733 0 
824 1 -14.7206 -11.964 0 
923 1 -15.3184 -11.0194 0 
826 1 -13.5879 -11.9094 0 
828 1 -12.4567 -11.8519 0 
830 1 -11.3241 -11.7931 0 
832 1 -10.1936 -11.7346 0 
834 1 -9.06514 -11.6747 0 
836 1 -7.93456 -11.6172 0 
838 1 -6.80776 -11.556 0 
840 1 -5.68124 -11.496 0 
842 1 -4.55624 -11.4377 0 
844 1 -3.4326 -11.3789 0 
846 1 -2.30906 -11.3231 0 
848 1 -1.18715 -11.268 0 
850 1 -0.0626078 -11.2208 0 
852 1 1.06108 -11.173 0 
855 1 2.77144 -12.1099 0 
854 1 2.18434 -11.1329 0 
857 1 3.8952 -12.0749 0 
856 1 3.30809 -11.0959 0 
859 1 5.01998 -12.0449 0 
858 1 4.43373 -11.0646 0 
861 1 6.14546 -12.0176 0 
860 1 5.55968 -11.0366 0 
863 1 7.2719 -11.9928 0 
862 1 6.68674 -11.0123 0 
865 1 8.39814 -11.9709 0 
864 1 7.81378 -10.9886 0 
867 1 9.52529 -11.9536 0 
869 1 10.6534 -11.936 0 
871 1 11.7805 -11.9206 0 
873 1 12.9077 -11.9053 0 
875 1 14.0349 -11.8906 0 
877 1 15.1623 -11.8769 0 
879 1 16.2893 -11.8664 0 
881 1 17.4169 -11.8568 0 
883 1 18.5465 -11.8462 0 
885 1 19.6759 -11.8383 0 
887 1 20.8054 -11.8314 0 
889 1 21.9351 -11.825 0 
891 1 23.0649 -11.8202 0 
893 1 24.1945 -11.8152 0 
895 2 25.3239 -11.8103 0 
897 2 26.4549 -11.8064 0 
899 2 27.586 -11.8028 0 
902 2 -27.2202 -10.5209 0 
904 2 -26.0925 -10.4842 0 
906 2 -24.9646 -10.4468 0 
908 1 -23.8357 -10.407 0 
910 1 -22.7047 -10.365 0 
912 1 -21.5736 -10.3208 0 
914 1 -20.4429 -10.276 0 
916 1 -19.3112 -10.2305 0 
918 1 -18.18 -10.1807 0 
920 1 -17.0492 -10.1281 0 
922 1 -15.9174 -10.0744 0 
924 1 -14.7841 -10.0197 0 
925 1 -14.1849 -10.9639 0 
926 1 -13.6509 -9.9615 0 
927 1 -13.053 -10.9057 0 
928 1 -12.5167 -9.90303 0 
929 1 -11.9202 -10.8479 0 
930 1 -11.3847 -9.84073 0 
931 1 -10.788 -10.7866 0 
933 1 -9.65751 -10.7247 0 
935 1 -8.52634 -10.6655 0 
937 1 -7.39875 -10.6016 0 
939 1 -6.27152 -10.5398 0 
941 1 -5.14545 -10.4766 0 
943 1 -4.02096 -10.4157 0 
945 1 -2.89723 -10.3576 0 
947 1 -1.77505 -10.2976 0 
949 1 -0.651033 -10.248 0 
951 1 0.471406 -10.1998 0 
953 1 1.59565 -10.1564 0 
955 1 2.7203 -10.1175 0 
957 1 3.84615 -10.0853 0 
959 1 4.97381 -10.0552 0 
961 1 6.10176 -10.03 0 
963 1 7.22898 -10.0068 0 
965 1 8.3582 -9.98616 0 
866 1 8.9417 -10.9699 0 
967 1 9.48685 -9.96769 0 
868 1 10.0698 -10.9524 0 
969 1 10.6162 -9.95194 0 
870 1 11.1986 -10.9363 0 
971 1 11.7445 -9.9364 0 
872 1 12.326 -10.921 0 
973 1 12.8732 -9.92199 0 
874 1 13.4529 -10.9063 0 
975 1 14.0022 -9.90914 0 
876 1 14.5807 -10.8933 0 
977 1 15.1308 -9.89778 0 
878 1 15.71 -10.8818 0 
979 1 16.2596 -9.88709 0 
880 1 16.8388 -10.8717 0 
981 1 17.3882 -9.87776 0 
882 1 17.9671 -10.8638 0 
983 1 18.517 -9.87082 0 
884 1 19.0968 -10.854 0 
985 1 19.6475 -9.86254 0 
886 1 20.2265 -10.8479 0 
987 1 20.7785 -9.858 0 
888 1 21.3571 -10.8413 0 
890 1 22.4872 -10.8366 0 
989 1 21.9101 -9.85276 0 
892 1 23.6175 -10.8328 0 
991 1 23.0412 -9.84916 0 
894 1 24.7486 -10.8279 0 
993 1 24.1725 -9.84582 0 
896 2 25.8793 -10.8234 0 
995 2 25.3037 -9.84035 0 
898 2 27.0108 -10.8201 0 
997 2 26.4357 -9.83726 0 
900 2 28.1423 -10.817 0 
999 2 27.5677 -9.8344 0 
1001 2 -27.8125 -9.56805 0 
1003 2 -26.6854 -9.5318 0 
1005 2 -25.5581 -9.49477 0 
1007 2 -24.4305 -9.45693 0 
1009 1 -23.3011 -9.41615 0 
1011 1 -22.1713 -9.37333 0 
1013 1 -21.0409 -9.32729 0 
1015 1 -19.9097 -9.28296 0 
1017 1 -18.7789 -9.23504 0 
1019 1 -17.6481 -9.1834 0 
1021 1 -16.5161 -9.13023 0 
1023 1 -15.3833 -9.07574 0 
1025 1 -14.25 -9.01866 0 
1027 1 -13.1158 -8.96014 0 
1029 1 -11.9828 -8.89733 0 
932 1 -10.253 -9.77716 0 
1031 1 -10.8501 -8.83276 0 
934 1 -9.12084 -9.716 0 
1033 1 -9.71711 -8.76863 0 
936 1 -7.99222 -9.6493 0 
1035 1 -8.588 -8.70082 0 
938 1 -6.86423 -9.58566 0 
940 1 -5.73717 -9.5202 0 
942 1 -4.61112 -9.45357 0 
944 1 -3.4873 -9.39193 0 
946 1 -2.36564 -9.32975 0 
948 1 -1.24032 -9.27643 0 
950 1 -0.117811 -9.22407 0 
952 1 1.00451 -9.18077 0 
954 1 2.1291 -9.14088 0 
956 1 3.256 -9.10491 0 
958 1 4.3835 -9.07485 0 
960 1 5.51276 -9.04848 0 
962 1 6.64139 -9.02428 0 
964 1 7.77021 -9.00363 0 
966 1 8.89927 -8.98352 0 
968 1 10.0303 -8.96867 0 
970 1 11.1607 -8.95243 0 
972 1 12.2911 -8.93832 0 
974 1 13.4211 -8.92515 0 
976 1 14.5508 -8.91274 0 
978 1 15.6803 -8.90213 0 
980 1 16.8098 -8.89312 0 
982 1 17.9409 -8.8862 0 
984 1 19.0716 -8.8785 0 
986 1 20.2029 -8.87299 0 
988 1 21.3341 -8.86915 0 
990 1 22.4664 -8.86563 0 
992 1 23.5982 -8.86233 0 
994 1 24.7295 -8.85759 0 
996 2 25.8608 -8.85435 0 
998 2 26.9933 -8.85174 0 
1000 2 28.1257 -8.84931 0 
1002 2 -27.2783 -8.57905 0 
1101 2 -27.8711 -7.62598 0 
1004 2 -26.1516 -8.54247 0 
1103 2 -26.7449 -7.58983 0 
1006 2 -25.0246 -8.50509 0 
1105 2 -25.6186 -7.5529 0 
1008 1 -23.8954 -8.46601 0 
1107 2 -24.492 -7.51516 0 
1010 1 -22.7669 -8.42491 0 
1012 1 -21.6382 -8.38076 0 
1014 1 -20.5069 -8.33569 0 
1016 1 -19.3763 -8.28826 0 
1018 1 -18.2467 -8.23814 0 
1020 1 -17.1162 -8.18673 0 
1022 1 -15.9844 -8.13289 0 
1024 1 -14.8513 -8.0773 0 
1026 1 -13.7173 -8.01862 0 
1028 1 -12.5842 -7.95679 0 
1030 1 -11.4513 -7.89198 0 
1032 1 -10.3177 -7.82585 0 
1034 1 -9.18589 -7.75556 0 
1036 1 -8.05505 -7.68563 0 
1037 1 -7.45915 -8.63417 0 
1038 1 -6.92593 -7.61521 0 
1039 1 -6.3314 -8.56649 0 
1041 1 -5.20544 -8.4966 0 
1043 1 -4.08031 -8.42906 0 
1045 1 -2.9581 -8.36255 0 
1047 1 -1.83371 -8.30592 0 
1049 1 -0.711118 -8.25034 0 
1051 1 0.413683 -8.20263 0 
1053 1 1.53844 -8.16157 0 
1055 1 2.66558 -8.12615 0 
1057 1 3.79411 -8.09416 0 
1059 1 4.92386 -8.06746 0 
1061 1 6.05314 -8.04245 0 
1063 1 7.18388 -8.02178 0 
1065 1 8.31421 -8.00095 0 
1067 1 9.44543 -7.98524 0 
1069 1 10.5757 -7.96881 0 
1071 1 11.7066 -7.95445 0 
1073 1 12.8373 -7.94144 0 
1075 1 13.9684 -7.92852 0 
1077 1 15.1003 -7.91767 0 
1079 1 16.2315 -7.90827 0 
1081 1 17.3626 -7.90142 0 
1083 1 18.4926 -7.89505 0 
1085 1 19.6248 -7.88929 0 
1087 1 20.7568 -7.88412 0 
1089 1 21.89 -7.88156 0 
1091 1 23.0221 -7.87809 0 
1093 1 24.153 -7.87466 0 
1095 2 25.2861 -7.87134 0 
1097 2 26.419 -7.86899 0 
1099 2 27.5519 -7.8668 0 
1102 2 -27.3381 -6.63684 0 
1104 2 -26.2124 -6.60035 0 
1106 2 -25.0865 -6.56307 0 
1108 1 -23.9598 -6.52379 0 
1109 1 -23.3631 -7.47482 0 
1110 1 -22.8329 -6.48258 0 
1111 1 -22.2348 -7.43226 0 
1112 1 -21.7043 -6.44017 0 
1113 1 -21.1051 -7.38874 0 
1114 1 -20.5755 -6.39533 0 
1115 1 -19.9755 -7.34224 0 
1116 1 -19.4464 -6.34809 0 
1117 1 -18.8458 -7.29301 0 
1119 1 -17.7159 -7.24263 0 
1121 1 -16.5859 -7.19005 0 
1123 1 -15.4549 -7.13633 0 
1125 1 -14.3219 -7.0789 0 
1127 1 -13.188 -7.01684 0 
1129 1 -12.0547 -6.95233 0 
1131 1 -10.9209 -6.88575 0 
1133 1 -9.78777 -6.81441 0 
1135 1 -8.655 -6.74173 0 
1137 1 -7.52336 -6.66739 0 
1139 1 -6.39492 -6.58921 0 
1040 1 -5.79928 -7.54176 0 
1141 1 -5.26778 -6.51449 0 
1042 1 -4.67378 -7.46988 0 
1143 1 -4.14439 -6.43672 0 
1044 1 -3.55156 -7.39877 0 
1046 1 -2.42746 -7.33681 0 
1048 1 -1.30455 -7.27684 0 
1050 1 -0.179202 -7.22666 0 
1052 1 0.946284 -7.18185 0 
1054 1 2.07348 -7.14638 0 
1056 1 3.20268 -7.11407 0 
1058 1 4.33396 -7.08712 0 
1060 1 5.46438 -7.06145 0 
1062 1 6.59557 -7.03996 0 
1064 1 7.72755 -7.01918 0 
1066 1 8.86137 -7.00155 0 
1068 1 9.99298 -6.98529 0 
1070 1 11.1249 -6.97014 0 
1072 1 12.2569 -6.95746 0 
1074 1 13.3886 -6.9454 0 
1076 1 14.52 -6.93369 0 
1078 1 15.6513 -6.9237 0 
1080 1 16.7828 -6.91666 0 
1082 1 17.9139 -6.90965 0 
1084 1 19.0462 -6.90604 0 
1086 1 20.1791 -6.89996 0 
1088 1 21.3128 -6.89696 0 
1090 1 22.4465 -6.89366 0 
1092 1 23.5793 -6.89064 0 
1094 1 24.7121 -6.88916 0 
1096 2 25.8451 -6.88616 0 
1098 2 26.9784 -6.88422 0 
1100 2 28.1116 -6.88241 0 
1201 2 -27.9311 -5.68349 0 
1203 2 -26.806 -5.64742 0 
1205 2 -25.6808 -5.61059 0 