ITEM: TIMESTEP
4600
ITEM: NUMBER OF ATOMS
2850
ITEM: BOX BOUNDS ff ff pp
-42.092 42.092
-42.092 42.092
-0.280613 0.280613
ITEM: ATOMS id type xu yu zu 
1 2 -27.3398 -28.9988 0 
3 2 -26.2107 -28.9642 0 
5 2 -25.0816 -28.9291 0 
7 2 -23.9525 -28.8936 0 
9 2 -22.8235 -28.8577 0 
11 2 -21.6944 -28.8213 0 
13 2 -20.5655 -28.7844 0 
15 2 -19.4366 -28.7472 0 
17 2 -18.3079 -28.7095 0 
19 2 -17.1793 -28.6715 0 
21 2 -16.0508 -28.6331 0 
23 2 -14.9226 -28.5944 0 
25 2 -13.7947 -28.5554 0 
27 2 -12.667 -28.5163 0 
29 2 -11.5396 -28.477 0 
31 2 -10.4126 -28.4376 0 
33 2 -9.28592 -28.3982 0 
35 2 -8.15967 -28.3589 0 
37 2 -7.03386 -28.3198 0 
39 2 -5.90848 -28.281 0 
2 2 -26.7941 -28.0086 0 
4 2 -25.6649 -27.9736 0 
6 2 -24.5357 -27.9381 0 
8 2 -23.4065 -27.902 0 
10 2 -22.2773 -27.8656 0 
12 2 -21.1481 -27.8286 0 
14 2 -20.019 -27.7912 0 
16 2 -18.89 -27.7533 0 
18 2 -17.7611 -27.715 0 
20 2 -16.6324 -27.6763 0 
22 2 -15.5039 -27.6373 0 
24 2 -14.3755 -27.5979 0 
26 2 -13.2475 -27.5582 0 
28 2 -12.1197 -27.5183 0 
30 2 -10.9923 -27.4783 0 
32 2 -9.86522 -27.4382 0 
34 2 -8.73856 -27.3981 0 
36 2 -7.61233 -27.3581 0 
38 2 -6.48656 -27.3184 0 
40 2 -5.36126 -27.2789 0 
41 2 -4.78357 -28.2426 0 
42 2 -4.23645 -27.24 0 
43 2 -3.65912 -28.2046 0 
44 2 -3.11213 -27.2015 0 
45 2 -2.53513 -28.1673 0 
46 2 -1.98828 -27.1638 0 
47 2 -1.41159 -28.1307 0 
48 2 -0.8649 -27.1269 0 
49 2 -0.288464 -28.095 0 
51 2 0.834263 -28.0602 0 
53 2 1.95663 -28.0264 0 
55 2 3.07869 -27.9937 0 
57 2 4.20048 -27.9622 0 
59 2 5.32207 -27.9319 0 
61 2 6.4435 -27.9029 0 
63 2 7.56483 -27.8752 0 
65 2 8.68613 -27.8488 0 
67 2 9.80743 -27.8237 0 
69 2 10.9288 -27.8 0 
71 2 12.0503 -27.7775 0 
73 2 13.1719 -27.7563 0 
75 2 14.2937 -27.7363 0 
77 2 15.4157 -27.7174 0 
79 2 16.538 -27.6997 0 
81 2 17.6605 -27.683 0 
83 2 18.7832 -27.6673 0 
85 2 19.9063 -27.6526 0 
87 2 21.0296 -27.6388 0 
89 2 22.1532 -27.6258 0 
91 2 23.2771 -27.6136 0 
93 2 24.4012 -27.6022 0 
95 2 25.5256 -27.5914 0 
97 2 26.6503 -27.5812 0 
99 2 27.7752 -27.5717 0 
101 2 -27.378 -27.0533 0 
103 2 -26.2487 -27.0183 0 
102 2 -26.833 -26.0633 0 
105 2 -25.1194 -26.9828 0 
104 2 -25.7037 -26.0278 0 
107 2 -23.9901 -26.9468 0 
106 2 -24.5742 -25.9918 0 
109 2 -22.8607 -26.9102 0 
108 1 -23.4444 -25.955 0 
111 2 -21.7314 -26.8732 0 
113 2 -20.6021 -26.8357 0 
115 2 -19.4729 -26.7977 0 
117 2 -18.3437 -26.7591 0 
119 2 -17.2147 -26.7202 0 
121 2 -16.0858 -26.6808 0 
123 2 -14.9572 -26.641 0 
125 2 -13.8287 -26.6009 0 
127 2 -12.7006 -26.5605 0 
129 2 -11.5727 -26.5198 0 
131 2 -10.4452 -26.479 0 
133 2 -9.31813 -26.4382 0 
135 2 -8.19146 -26.3973 0 
137 2 -7.06526 -26.3566 0 
139 2 -5.93954 -26.3162 0 
141 2 -4.81433 -26.2762 0 
143 2 -3.68963 -26.2366 0 
145 2 -2.56545 -26.1977 0 
147 2 -1.44177 -26.1596 0 
50 2 0.258046 -27.0909 0 
149 2 -0.318563 -26.1224 0 
52 2 1.38059 -27.056 0 
151 2 0.804196 -26.0862 0 
54 2 2.50279 -27.0222 0 
153 2 1.92656 -26.0512 0 
56 2 3.62468 -26.9896 0 
155 2 3.04857 -26.0174 0 
58 2 4.74633 -26.9582 0 
157 2 4.1703 -25.9849 0 
60 2 5.86779 -26.9282 0 
159 2 5.2918 -25.9538 0 
62 2 6.98913 -26.8996 0 
64 2 8.11041 -26.8723 0 
66 2 9.23169 -26.8465 0 
68 2 10.353 -26.822 0 
70 2 11.4745 -26.7989 0 
72 2 12.596 -26.7771 0 
74 2 13.7178 -26.7566 0 
76 2 14.8398 -26.7373 0 
78 2 15.962 -26.7192 0 
80 2 17.0845 -26.7023 0 
82 2 18.2073 -26.6863 0 
84 2 19.3304 -26.6714 0 
86 2 20.4538 -26.6575 0 
88 2 21.5774 -26.6444 0 
90 2 22.7014 -26.6321 0 
92 2 23.8256 -26.6206 0 
94 2 24.9501 -26.6098 0 
96 2 26.0749 -26.5996 0 
98 2 27.2 -26.5901 0 
100 2 28.3253 -26.5811 0 
201 2 -27.4179 -25.1085 0 
203 2 -26.2885 -25.0731 0 
205 2 -25.159 -25.0372 0 
207 2 -24.0295 -25.0007 0 
209 1 -22.8991 -24.9627 0 
110 1 -22.3147 -25.9176 0 
211 1 -21.7691 -24.9245 0 
112 1 -21.1851 -25.8797 0 
213 1 -20.6393 -24.8858 0 
114 1 -20.0556 -25.8415 0 
215 1 -19.5098 -24.8466 0 
116 1 -18.9262 -25.8025 0 
217 1 -18.3802 -24.8069 0 
118 1 -17.797 -25.7632 0 
120 1 -16.668 -25.7234 0 
122 1 -15.5392 -25.6831 0 
124 1 -14.4108 -25.6426 0 
126 1 -13.2825 -25.6016 0 
128 1 -12.1546 -25.5603 0 
130 1 -11.0271 -25.519 0 
132 1 -9.89983 -25.4776 0 
134 1 -8.77314 -25.4358 0 
136 1 -7.64698 -25.3944 0 
138 1 -6.52103 -25.3531 0 
140 1 -5.39558 -25.312 0 
142 1 -4.27081 -25.2716 0 
144 1 -3.14659 -25.2316 0 
146 1 -2.02281 -25.1924 0 
148 1 -0.899407 -25.1541 0 
150 1 0.223561 -25.117 0 
152 1 1.3461 -25.0809 0 
154 1 2.46831 -25.0461 0 
156 1 3.59031 -25.0127 0 
158 1 4.71211 -24.9808 0 
160 1 5.83386 -24.9502 0 
161 2 6.41316 -25.9242 0 
162 1 6.9555 -24.9212 0 
163 2 7.53443 -25.896 0 
164 1 8.07719 -24.8938 0 
165 2 8.65568 -25.8693 0 
167 2 9.77697 -25.844 0 
166 1 9.19887 -24.8679 0 
169 2 10.8984 -25.8202 0 
168 1 10.3207 -24.8434 0 
171 2 12.0199 -25.7978 0 
170 1 11.4426 -24.8203 0 
173 2 13.1416 -25.7768 0 
175 2 14.2636 -25.7571 0 
177 2 15.3858 -25.7386 0 
179 2 16.5083 -25.7213 0 
181 2 17.6311 -25.7052 0 
183 2 18.7543 -25.6901 0 
185 2 19.8777 -25.6759 0 
187 2 21.0014 -25.6627 0 
189 2 22.1254 -25.6504 0 
191 2 23.2498 -25.6388 0 
193 2 24.3744 -25.628 0 
195 2 25.4993 -25.6179 0 
197 2 26.6245 -25.6084 0 
199 2 27.75 -25.5994 0 
202 2 -26.8739 -24.1187 0 
204 2 -25.7444 -24.0828 0 
206 2 -24.6148 -24.0464 0 
208 1 -23.4844 -24.0087 0 
210 1 -22.3541 -23.9699 0 
212 1 -21.2239 -23.9309 0 
214 1 -20.094 -23.8913 0 
216 1 -18.9642 -23.8513 0 
219 1 -17.2509 -24.7666 0 
218 1 -17.8347 -23.8107 0 
221 1 -16.1219 -24.726 0 
220 1 -16.7054 -23.7695 0 
222 1 -15.5764 -23.7279 0 
223 1 -14.9933 -24.6848 0 
224 1 -14.4478 -23.6859 0 
225 1 -13.8649 -24.6436 0 
227 1 -12.7368 -24.6016 0 
229 1 -11.6091 -24.5595 0 
231 1 -10.4818 -24.5175 0 
233 1 -9.35503 -24.475 0 
235 1 -8.2286 -24.4326 0 
237 1 -7.1025 -24.3906 0 
239 1 -5.97698 -24.3487 0 
241 1 -4.85205 -24.3071 0 
243 1 -3.72763 -24.2662 0 
245 1 -2.60372 -24.2257 0 
247 1 -1.48026 -24.1864 0 
249 1 -0.357122 -24.1482 0 
251 1 0.765654 -24.1111 0 
253 1 1.88813 -24.0751 0 
255 1 3.01039 -24.0408 0 
257 1 4.13253 -24.0079 0 
259 1 5.25455 -23.9766 0 
261 1 6.37644 -23.9467 0 
263 1 7.49835 -23.9186 0 
265 1 8.62032 -23.8918 0 
267 1 9.74241 -23.8667 0 
269 1 10.8647 -23.8431 0 
271 1 11.9871 -23.8207 0 
172 1 12.5647 -24.7987 0 
273 1 13.1096 -23.8 0 
174 1 13.6869 -24.7785 0 
275 1 14.2323 -23.7806 0 
176 1 14.8094 -24.7595 0 
277 1 15.3553 -23.7624 0 
178 1 15.9322 -24.7419 0 
279 1 16.4786 -23.7456 0 
180 1 17.0552 -24.7255 0 
281 1 17.6021 -23.73 0 
182 1 18.1785 -24.71 0 
283 1 18.7259 -23.7152 0 
184 1 19.302 -24.6955 0 
285 1 19.8499 -23.7014 0 
186 1 20.4259 -24.6822 0 
287 1 20.9741 -23.6887 0 
188 1 21.5501 -24.6697 0 
289 1 22.0986 -23.6767 0 
190 1 22.6745 -24.6577 0 
291 1 23.2233 -23.6654 0 
192 1 23.7991 -24.6466 0 
293 1 24.3481 -23.6546 0 
194 1 24.924 -24.6363 0 
295 2 25.4729 -23.6443 0 
196 2 26.0488 -24.6264 0 
198 2 27.1745 -24.6176 0 
200 2 28.3003 -24.6093 0 
301 2 -27.4598 -23.1644 0 
303 2 -26.3303 -23.1287 0 
305 2 -25.2007 -23.0924 0 
307 2 -24.071 -23.0555 0 
309 1 -22.9401 -23.0163 0 
311 1 -21.8096 -22.9768 0 
313 1 -20.6793 -22.9369 0 
315 1 -19.5492 -22.8964 0 
317 1 -18.4194 -22.8554 0 
319 1 -17.2898 -22.8139 0 
321 1 -16.1606 -22.7717 0 
323 1 -15.0316 -22.7293 0 
226 1 -13.3195 -23.6437 0 
325 1 -13.903 -22.6864 0 
327 1 -12.7747 -22.6432 0 
228 1 -12.1916 -23.6009 0 
329 1 -11.6469 -22.5996 0 
230 1 -11.064 -23.558 0 
331 1 -10.5195 -22.5556 0 
232 1 -9.93697 -23.5149 0 
333 1 -9.39266 -22.5115 0 
234 1 -8.81039 -23.4717 0 
236 1 -7.68417 -23.4288 0 
238 1 -6.5585 -23.386 0 
240 1 -5.43332 -23.3433 0 
242 1 -4.30868 -23.3013 0 
244 1 -3.18466 -23.2599 0 
246 1 -2.06094 -23.2192 0 
248 1 -0.937684 -23.1799 0 
250 1 0.185212 -23.1417 0 
252 1 1.30776 -23.1047 0 
254 1 2.43025 -23.0692 0 
256 1 3.55262 -23.0353 0 
258 1 4.67492 -23.0031 0 
260 1 5.79702 -22.9724 0 
262 1 6.9192 -22.9433 0 
264 1 8.04136 -22.9159 0 
266 1 9.16372 -22.8901 0 
268 1 10.2862 -22.8659 0 
270 1 11.4088 -22.8429 0 
272 1 12.5316 -22.8216 0 
274 1 13.6547 -22.8016 0 
276 1 14.778 -22.7831 0 
278 1 15.9016 -22.7658 0 
280 1 17.0253 -22.7497 0 
282 1 18.1492 -22.7348 0 
284 1 19.2734 -22.7208 0 
286 1 20.3979 -22.7076 0 
288 1 21.5225 -22.6955 0 
290 1 22.6473 -22.684 0 
292 1 23.7723 -22.6731 0 
294 1 24.8974 -22.6627 0 
297 2 26.5987 -23.6355 0 
296 2 26.0228 -22.6533 0 
299 2 27.7248 -23.6273 0 
298 2 27.149 -22.6452 0 
300 2 28.2755 -22.6376 0 
302 2 -26.9167 -22.1747 0 
304 2 -25.7871 -22.1385 0 
306 2 -24.6574 -22.1018 0 
308 1 -23.5267 -22.0633 0 
310 1 -22.396 -22.0235 0 
312 1 -21.2655 -21.9832 0 
314 1 -20.135 -21.9423 0 
316 1 -19.0048 -21.9009 0 
318 1 -17.8749 -21.8591 0 
320 1 -16.7453 -21.8165 0 
322 1 -15.616 -21.7735 0 
324 1 -14.4871 -21.73 0 
326 1 -13.3584 -21.6862 0 
328 1 -12.2303 -21.6419 0 
330 1 -11.1026 -21.5972 0 
332 1 -9.97527 -21.5523 0 
334 1 -8.84844 -21.5074 0 
335 1 -8.26622 -22.4677 0 
336 1 -7.72228 -21.4627 0 
337 1 -7.14032 -22.4239 0 
338 1 -6.59663 -21.4182 0 
339 1 -6.01495 -22.3804 0 
340 1 -5.47159 -21.3738 0 
341 1 -4.89002 -22.3371 0 
343 1 -3.7657 -22.2946 0 
345 1 -2.64181 -22.2529 0 
347 1 -1.51828 -22.2121 0 
349 1 -0.395251 -22.1728 0 
351 1 0.72744 -22.1346 0 
353 1 1.84999 -22.0979 0 
355 1 2.97247 -22.063 0 
357 1 4.09484 -22.0299 0 
359 1 5.21718 -21.9983 0 
361 1 6.33956 -21.9683 0 
363 1 7.46205 -21.94 0 
365 1 8.58469 -21.9136 0 
367 1 9.70735 -21.8886 0 
369 1 10.8301 -21.8652 0 
371 1 11.9532 -21.8432 0 
373 1 13.0766 -21.8228 0 
375 1 14.2002 -21.8037 0 
377 1 15.3239 -21.786 0 
379 1 16.4479 -21.7695 0 
381 1 17.572 -21.7543 0 
383 1 18.6964 -21.7401 0 
385 1 19.821 -21.7267 0 
387 1 20.9459 -21.7142 0 
389 1 22.0709 -21.7025 0 
391 1 23.1961 -21.6915 0 
393 1 24.3214 -21.681 0 
395 2 25.4466 -21.6709 0 
397 2 26.573 -21.6629 0 
399 2 27.6998 -21.6554 0 
401 2 -27.5037 -21.2208 0 
403 2 -26.3741 -21.1849 0 
402 2 -26.9617 -20.2313 0 
405 2 -25.2445 -21.1483 0 
404 2 -25.8321 -20.1949 0 
407 2 -24.1147 -21.111 0 
409 1 -22.9834 -21.0708 0 
411 1 -21.8525 -21.0302 0 
413 1 -20.7218 -20.9891 0 
415 1 -19.5913 -20.9474 0 
417 1 -18.461 -20.9051 0 
419 1 -17.3311 -20.8622 0 
421 1 -16.2014 -20.8186 0 
423 1 -15.072 -20.7745 0 
425 1 -13.943 -20.7301 0 
427 1 -12.8143 -20.685 0 
429 1 -11.6863 -20.6397 0 
431 1 -10.5586 -20.5941 0 
433 1 -9.43147 -20.5483 0 
435 1 -8.3049 -20.5024 0 
437 1 -7.17893 -20.4569 0 
439 1 -6.05358 -20.4113 0 
342 1 -4.34699 -21.33 0 
441 1 -4.92869 -20.3662 0 
344 1 -3.22284 -21.287 0 
443 1 -3.80425 -20.3219 0 
346 1 -2.09921 -21.245 0 
445 1 -2.68031 -20.2786 0 
348 1 -0.975948 -21.2043 0 
447 1 -1.55682 -20.2364 0 
350 1 0.14693 -21.1649 0 
352 1 1.26958 -21.1271 0 
354 1 2.3922 -21.091 0 
356 1 3.51474 -21.0568 0 
358 1 4.63723 -21.0243 0 
360 1 5.75981 -20.9935 0 
362 1 6.88248 -20.9643 0 
364 1 8.00531 -20.937 0 
366 1 9.12818 -20.9113 0 
368 1 10.2512 -20.8873 0 
370 1 11.3745 -20.8649 0 
372 1 12.4981 -20.844 0 
374 1 13.6218 -20.8244 0 
376 1 14.7458 -20.8062 0 
378 1 15.87 -20.7893 0 
380 1 16.9944 -20.7737 0 
382 1 18.119 -20.7592 0 
384 1 19.2438 -20.7457 0 
386 1 20.3689 -20.733 0 
388 1 21.4942 -20.721 0 
390 1 22.6197 -20.7099 0 
392 1 23.7452 -20.6994 0 
394 1 24.8709 -20.6893 0 
396 2 25.9969 -20.6804 0 
398 2 27.1238 -20.673 0 
400 2 28.251 -20.6661 0 
501 2 -27.5497 -19.2779 0 
503 2 -26.4202 -19.2417 0 
505 2 -25.2906 -19.2049 0 
406 2 -24.7023 -20.1579 0 
507 2 -24.1608 -19.1673 0 
408 1 -23.5715 -20.1188 0 
509 1 -23.0293 -19.1263 0 
410 1 -22.4404 -20.0779 0 
511 1 -21.898 -19.0846 0 
412 1 -21.3095 -20.0365 0 
513 1 -20.7669 -19.0424 0 
414 1 -20.1787 -19.9946 0 
416 1 -19.0481 -19.952 0 
418 1 -17.9178 -19.9085 0 
420 1 -16.7877 -19.8647 0 
422 1 -15.6578 -19.82 0 
424 1 -14.5283 -19.7749 0 
426 1 -13.3993 -19.7293 0 
428 1 -12.2707 -19.6831 0 
430 1 -11.1426 -19.6368 0 
432 1 -10.015 -19.5902 0 
434 1 -8.888 -19.5432 0 
436 1 -7.76156 -19.4965 0 
438 1 -6.63579 -19.4498 0 
440 1 -5.51068 -19.4033 0 
442 1 -4.38603 -19.3577 0 
444 1 -3.26187 -19.3129 0 
446 1 -2.13811 -19.2693 0 
448 1 -1.01479 -19.2271 0 
449 1 -0.433772 -20.1958 0 
450 1 0.108126 -19.1866 0 
451 1 0.689044 -20.1566 0 
452 1 1.23091 -19.1479 0 
453 1 1.81167 -20.1194 0 
454 1 2.35359 -19.1114 0 
455 1 2.9343 -20.084 0 
456 1 3.47633 -19.0767 0 
457 1 4.05692 -20.0504 0 
459 1 5.17964 -20.0188 0 
461 1 6.30242 -19.9888 0 
463 1 7.42536 -19.9606 0 
465 1 8.54852 -19.9341 0 
467 1 9.67181 -19.9094 0 
469 1 10.7954 -19.8865 0 
471 1 11.9192 -19.8651 0 
473 1 13.0431 -19.845 0 
475 1 14.1673 -19.8264 0 
477 1 15.2918 -19.809 0 
479 1 16.4165 -19.7931 0 
481 1 17.5415 -19.7783 0 
483 1 18.6665 -19.7645 0 
485 1 19.7918 -19.7516 0 
487 1 20.9173 -19.7396 0 
489 1 22.043 -19.7283 0 
491 1 23.1688 -19.7177 0 
493 1 24.2946 -19.7075 0 
495 2 25.4205 -19.6978 0 
497 2 26.5477 -19.6905 0 
499 2 27.6751 -19.6838 0 
502 2 -27.0088 -18.2886 0 
504 2 -25.8793 -18.252 0 
506 2 -24.7497 -18.2147 0 
508 1 -23.6187 -18.1751 0 
510 1 -22.4875 -18.1333 0 
512 1 -21.3562 -18.0909 0 
514 1 -20.225 -18.048 0 
515 1 -19.636 -18.9997 0 
516 1 -19.094 -18.0042 0 
517 1 -18.5054 -18.9559 0 
518 1 -17.9631 -17.9595 0 
519 1 -17.3748 -18.9116 0 
520 1 -16.8325 -17.9142 0 
521 1 -16.2445 -18.8667 0 
523 1 -15.1146 -18.8209 0 
525 1 -13.9851 -18.7747 0 
527 1 -12.856 -18.7279 0 
529 1 -11.7274 -18.6806 0 
531 1 -10.5994 -18.6331 0 
533 1 -9.47187 -18.5851 0 
535 1 -8.34484 -18.5371 0 
537 1 -7.21862 -18.4893 0 
539 1 -6.09311 -18.4414 0 
541 1 -4.96821 -18.3944 0 
543 1 -3.84383 -18.3481 0 
545 1 -2.71985 -18.303 0 
547 1 -1.59641 -18.2592 0 
549 1 -0.473259 -18.2172 0 
551 1 0.649652 -18.177 0 
553 1 1.77253 -18.1389 0 
555 1 2.89533 -18.1031 0 
557 1 4.01823 -18.0694 0 
458 1 4.59919 -19.0441 0 
559 1 5.14121 -18.0377 0 
460 1 5.72209 -19.0132 0 
561 1 6.26444 -18.0078 0 
462 1 6.84507 -18.9842 0 
563 1 7.38794 -17.9799 0 
464 1 7.96836 -18.9571 0 
565 1 8.51166 -17.9538 0 
466 1 9.09194 -18.9315 0 
567 1 9.63572 -17.9296 0 
468 1 10.2158 -18.9082 0 
569 1 10.7598 -17.9072 0 
470 1 11.3397 -18.8862 0 
472 1 12.4639 -18.8656 0 
474 1 13.5884 -18.8466 0 
476 1 14.7132 -18.8289 0 
478 1 15.8381 -18.8124 0 
480 1 16.9633 -18.7975 0 
482 1 18.0886 -18.7834 0 
484 1 19.2142 -18.7702 0 
486 1 20.34 -18.7581 0 
488 1 21.4659 -18.7467 0 
490 1 22.592 -18.7359 0 
492 1 23.7183 -18.7258 0 
494 1 24.8447 -18.716 0 
496 2 25.9714 -18.7078 0 
498 2 27.0991 -18.7012 0 
500 2 28.2271 -18.6951 0 
601 2 -27.5979 -17.3354 0 
603 2 -26.4686 -17.2992 0 
605 2 -25.3391 -17.2621 0 
607 2 -24.2094 -17.2244 0 
609 1 -23.0779 -17.1825 0 
611 1 -21.9465 -17.1401 0 
613 1 -20.815 -17.0969 0 
615 1 -19.6837 -17.0531 0 
617 1 -18.5524 -17.0083 0 
619 1 -17.4214 -16.9627 0 
522 1 -15.7021 -17.868 0 
621 1 -16.2907 -16.916 0 
524 1 -14.572 -17.8212 0 
623 1 -15.16 -16.8689 0 
526 1 -13.4423 -17.7738 0 
625 1 -14.0298 -16.8208 0 
528 1 -12.3131 -17.7257 0 
627 1 -12.9 -16.7719 0 
530 1 -11.1844 -17.677 0 
532 1 -10.0565 -17.6282 0 
534 1 -8.92905 -17.5791 0 
536 1 -7.80224 -17.5298 0 
538 1 -6.67626 -17.4807 0 
540 1 -5.55094 -17.4321 0 
542 1 -4.42625 -17.3843 0 
544 1 -3.30199 -17.3375 0 
546 1 -2.17833 -17.2919 0 
548 1 -1.055 -17.2484 0 
550 1 0.0679988 -17.2066 0 
552 1 1.19093 -17.1671 0 
554 1 2.31386 -17.1297 0 
556 1 3.43686 -17.0947 0 
558 1 4.55996 -17.0621 0 
560 1 5.68325 -17.0314 0 
562 1 6.80683 -17.0028 0 
564 1 7.93075 -16.976 0 
566 1 9.05499 -16.9511 0 
568 1 10.1795 -16.928 0 
571 1 11.8842 -17.8863 0 
570 1 11.3042 -16.9066 0 
573 1 13.009 -17.8667 0 
572 1 12.4292 -16.8868 0 
575 1 14.134 -17.8486 0 
574 1 13.5545 -16.8682 0 
577 1 15.2593 -17.8318 0 
576 1 14.68 -16.8511 0 
579 1 16.3849 -17.8165 0 
578 1 15.8058 -16.8355 0 
581 1 17.5105 -17.8021 0 
580 1 16.9319 -16.8209 0 
583 1 18.6363 -17.7888 0 
582 1 18.0581 -16.8073 0 
585 1 19.7624 -17.7765 0 
584 1 19.1845 -16.7949 0 
587 1 20.8886 -17.765 0 
586 1 20.3111 -16.7832 0 
589 1 22.015 -17.7542 0 
588 1 21.4378 -16.7724 0 
591 1 23.1416 -17.744 0 
590 1 22.5647 -16.7623 0 
593 1 24.2681 -17.7343 0 
592 1 23.6917 -16.7525 0 
595 2 25.3948 -17.725 0 
594 1 24.8189 -16.7433 0 
596 2 25.9465 -16.7357 0 
597 2 26.5229 -17.7186 0 
598 2 27.0751 -16.7299 0 
599 2 27.6512 -17.7126 0 
600 2 28.2039 -16.7246 0 
602 2 -27.0583 -16.3463 0 
604 2 -25.929 -16.3096 0 
606 2 -24.7995 -16.2721 0 
608 1 -23.6686 -16.2321 0 
610 1 -22.5374 -16.1896 0 
612 1 -21.406 -16.1466 0 
614 1 -20.2744 -16.1026 0 
616 1 -19.1429 -16.0578 0 
618 1 -18.0115 -16.012 0 
620 1 -16.8804 -15.9651 0 
622 1 -15.7493 -15.9176 0 
624 1 -14.6186 -15.869 0 
626 1 -13.4883 -15.8194 0 
628 1 -12.3584 -15.7692 0 
629 1 -11.7708 -16.7225 0 
630 1 -11.2291 -15.7182 0 
631 1 -10.6422 -16.6725 0 
632 1 -10.1005 -15.667 0 
633 1 -9.51417 -16.6224 0 
634 1 -8.97256 -15.6152 0 
635 1 -8.38692 -16.5718 0 
637 1 -7.26029 -16.5213 0 
639 1 -6.13441 -16.4711 0 
641 1 -5.00934 -16.4215 0 
643 1 -3.88479 -16.3731 0 
645 1 -2.76085 -16.3256 0 
647 1 -1.63727 -16.2802 0 
649 1 -0.514123 -16.2368 0 
651 1 0.608908 -16.1955 0 
653 1 1.73186 -16.1567 0 
655 1 2.85496 -16.1204 0 
657 1 3.97831 -16.0865 0 
659 1 5.10172 -16.0549 0 
661 1 6.22542 -16.0254 0 
663 1 7.34951 -15.9981 0 
665 1 8.47391 -15.9725 0 
667 1 9.59864 -15.949 0 
669 1 10.7237 -15.9269 0 
671 1 11.849 -15.9067 0 
673 1 12.9745 -15.8879 0 
675 1 14.1004 -15.8704 0 
677 1 15.2266 -15.8543 0 
679 1 16.353 -15.8396 0 
681 1 17.4796 -15.8259 0 
683 1 18.6064 -15.8132 0 
685 1 19.7332 -15.8014 0 
687 1 20.8603 -15.7905 0 
689 1 21.9876 -15.7804 0 
691 1 23.1149 -15.7707 0 
693 1 24.2424 -15.7615 0 
695 2 25.3699 -15.7527 0 
697 2 26.4989 -15.7471 0 
699 2 27.6281 -15.742 0 
701 2 -27.6483 -15.3934 0 
703 2 -26.5193 -15.357 0 
705 2 -25.3901 -15.3199 0 
707 2 -24.2607 -15.282 0 
709 1 -23.1292 -15.2396 0 
711 1 -21.9977 -15.1967 0 
713 1 -20.8662 -15.1528 0 
715 1 -19.7345 -15.108 0 
717 1 -18.6028 -15.0621 0 
719 1 -17.4712 -15.0152 0 
721 1 -16.3398 -14.9673 0 
723 1 -15.2086 -14.9184 0 
725 1 -14.0777 -14.8683 0 
727 1 -12.9471 -14.8173 0 
729 1 -11.8171 -14.7654 0 
731 1 -10.6877 -14.7131 0 
733 1 -9.5591 -14.6601 0 
636 1 -7.84526 -15.5633 0 
735 1 -8.43121 -14.6068 0 
638 1 -6.7188 -15.5115 0 
737 1 -7.30402 -14.5533 0 
640 1 -5.59318 -15.4601 0 
739 1 -6.17778 -14.5001 0 
642 1 -4.46827 -15.4098 0 
644 1 -3.34408 -15.3605 0 
646 1 -2.22024 -15.313 0 
648 1 -1.09688 -15.2676 0 
650 1 0.0262804 -15.2246 0 
652 1 1.14941 -15.184 0 
654 1 2.27259 -15.1463 0 
656 1 3.396 -15.1112 0 
658 1 4.51965 -15.0784 0 
660 1 5.6436 -15.0481 0 
662 1 6.76794 -15.02 0 
664 1 7.8925 -14.9938 0 
666 1 9.01748 -14.9696 0 
668 1 10.1428 -14.9472 0 
670 1 11.2685 -14.9265 0 
672 1 12.3944 -14.9073 0 
674 1 13.5206 -14.8896 0 
676 1 14.6471 -14.8732 0 
678 1 15.7739 -14.8582 0 
680 1 16.9008 -14.8443 0 
682 1 18.028 -14.8314 0 
684 1 19.1554 -14.8195 0 
686 1 20.2829 -14.8086 0 
688 1 21.4104 -14.7984 0 
690 1 22.5381 -14.7888 0 
692 1 23.6661 -14.7798 0 
694 1 24.7942 -14.7711 0 
696 2 25.9226 -14.7642 0 
698 2 27.0521 -14.7592 0 
700 2 28.1818 -14.7547 0 
702 2 -27.11 -14.4044 0 
801 2 -27.7009 -13.4516 0 
704 2 -25.9811 -14.3676 0 
803 2 -26.5724 -13.4152 0 
706 2 -24.852 -14.3301 0 
805 2 -25.4437 -13.3781 0 
708 1 -23.7213 -14.2898 0 
807 2 -24.3146 -13.3401 0 
710 1 -22.5902 -14.2471 0 
809 1 -23.1834 -13.2976 0 
712 1 -21.4588 -14.2033 0 
714 1 -20.327 -14.1587 0 
716 1 -19.1952 -14.113 0 
718 1 -18.0635 -14.066 0 
720 1 -16.9316 -14.0181 0 
722 1 -15.7999 -13.9688 0 
724 1 -14.6685 -13.9183 0 
726 1 -13.5374 -13.8668 0 
728 1 -12.4066 -13.8141 0 
730 1 -11.2765 -13.7608 0 
732 1 -10.1471 -13.7066 0 
734 1 -9.01848 -13.6519 0 
736 1 -7.89067 -13.5969 0 
738 1 -6.76372 -13.5418 0 
740 1 -5.6377 -13.4874 0 
741 1 -5.05232 -14.4477 0 
742 1 -4.5126 -13.4336 0 
743 1 -3.92783 -14.3964 0 
744 1 -3.38832 -13.3817 0 
745 1 -2.80381 -14.3468 0 
746 1 -2.26459 -13.3316 0 
747 1 -1.68024 -14.2991 0 
749 1 -0.557006 -14.2541 0 
751 1 0.566162 -14.2118 0 
753 1 1.68952 -14.1724 0 
755 1 2.81308 -14.1359 0 
757 1 3.93682 -14.1021 0 
759 1 5.06103 -14.0708 0 
761 1 6.18559 -14.0419 0 
763 1 7.3104 -14.015 0 
765 1 8.43572 -13.9902 0 
767 1 9.56146 -13.9673 0 
769 1 10.6875 -13.9462 0 
771 1 11.8137 -13.9266 0 
773 1 12.9404 -13.9087 0 
775 1 14.0673 -13.8921 0 
777 1 15.1945 -13.8767 0 
779 1 16.3218 -13.8626 0 
781 1 17.4494 -13.8496 0 
783 1 18.5772 -13.8376 0 
785 1 19.7051 -13.8265 0 
787 1 20.833 -13.8163 0 
789 1 21.9611 -13.8067 0 
791 1 23.0894 -13.7978 0 
793 1 24.2179 -13.7895 0 
795 2 25.3462 -13.7811 0 
797 2 26.4761 -13.7764 0 
799 2 27.6062 -13.772 0 
802 2 -27.164 -12.4626 0 
804 2 -26.0357 -12.4259 0 
806 2 -24.9071 -12.3884 0 
808 1 -23.7768 -12.3481 0 
810 1 -22.6459 -12.3051 0 
811 1 -22.0521 -13.2542 0 
812 1 -21.5146 -12.2611 0 
813 1 -20.9205 -13.2099 0 
814 1 -20.3831 -12.2162 0 
815 1 -19.7887 -13.1643 0 
816 1 -19.2512 -12.1697 0 
817 1 -18.6569 -13.1176 0 
818 1 -18.1192 -12.122 0 
819 1 -17.5248 -13.0697 0 
821 1 -16.3928 -13.0204 0 
823 1 -15.2609 -12.9697 0 
825 1 -14.1292 -12.9177 0 
827 1 -12.9979 -12.8645 0 
829 1 -11.8669 -12.8102 0 
831 1 -10.7365 -12.7549 0 
833 1 -9.60702 -12.6988 0 
835 1 -8.47845 -12.6423 0 
837 1 -7.35075 -12.5853 0 
839 1 -6.22395 -12.5286 0 
841 1 -5.09834 -12.4725 0 
843 1 -3.97349 -12.4178 0 
845 1 -2.84955 -12.3651 0 
748 1 -1.1411 -13.2842 0 
847 1 -1.72594 -12.3153 0 
849 1 -0.602397 -12.2687 0 
750 1 -0.0178342 -13.24 0 
851 1 0.521057 -12.2256 0 
752 1 1.10555 -13.1989 0 
853 1 1.64483 -12.186 0 
754 1 2.22925 -13.1609 0 
756 1 3.35325 -13.1258 0 
758 1 4.47771 -13.0935 0 
760 1 5.60259 -13.0636 0 
762 1 6.72779 -13.0361 0 
764 1 7.8534 -13.0107 0 
766 1 8.97946 -12.9874 0 
768 1 10.106 -12.9658 0 
770 1 11.2328 -12.9459 0 
772 1 12.3599 -12.9277 0 
774 1 13.4872 -12.9108 0 
776 1 14.6148 -12.8952 0 
778 1 15.7426 -12.8809 0 
780 1 16.8706 -12.8676 0 
782 1 17.9988 -12.8555 0 
784 1 19.1271 -12.8444 0 
786 1 20.2555 -12.8342 0 
788 1 21.384 -12.8246 0 
790 1 22.5127 -12.8157 0 
792 1 23.6416 -12.8076 0 
794 1 24.7706 -12.7995 0 
796 2 25.9 -12.7934 0 
798 2 27.0306 -12.7893 0 
800 2 28.1612 -12.7854 0 
901 2 -27.7557 -11.5099 0 
903 2 -26.6279 -11.4735 0 
905 2 -25.4997 -11.4364 0 
907 2 -24.3713 -11.3985 0 
909 1 -23.2405 -11.356 0 
911 1 -22.1096 -11.3126 0 
913 1 -20.9783 -11.2681 0 
915 1 -19.8467 -11.2222 0 
917 1 -18.7148 -11.1748 0 
820 1 -16.9871 -12.0729 0 
919 1 -17.5828 -11.1261 0 
822 1 -15.8549 -12.0221 0 
921 1 -16.4505 -11.0756 0 
824 1 -14.7228 -11.97 0 
923 1 -15.3181 -11.0234 0 
826 1 -13.5908 -11.9163 0 
828 1 -12.459 -11.8614 0 
830 1 -11.3279 -11.8051 0 
832 1 -10.1975 -11.7477 0 
834 1 -9.0679 -11.6895 0 
836 1 -7.93937 -11.6308 0 
838 1 -6.81174 -11.5718 0 
840 1 -5.68535 -11.5132 0 
842 1 -4.55996 -11.4557 0 
844 1 -3.43562 -11.4 0 
846 1 -2.31177 -11.3474 0 
848 1 -1.18814 -11.2981 0 
850 1 -0.0645231 -11.2527 0 
852 1 1.05933 -11.2113 0 
855 1 2.76896 -12.1495 0 
854 1 2.18357 -11.1733 0 
857 1 3.89365 -12.1161 0 
856 1 3.30848 -11.1388 0 
859 1 5.01877 -12.0853 0 
858 1 4.43395 -11.107 0 
861 1 6.14436 -12.0572 0 
860 1 5.55997 -11.0781 0 
863 1 7.27049 -12.0312 0 
862 1 6.68664 -11.0517 0 
865 1 8.39697 -12.0073 0 
864 1 7.81372 -11.0271 0 
867 1 9.5239 -11.9854 0 
869 1 10.6513 -11.9651 0 
871 1 11.7789 -11.9466 0 
873 1 12.9067 -11.9293 0 
875 1 14.0347 -11.9135 0 
877 1 15.163 -11.8991 0 
879 1 16.2915 -11.8856 0 
881 1 17.4202 -11.8734 0 
883 1 18.5491 -11.8622 0 
885 1 19.678 -11.8519 0 
887 1 20.8069 -11.8424 0 
889 1 21.9361 -11.8336 0 
891 1 23.0654 -11.8255 0 
893 1 24.1947 -11.8178 0 
895 2 25.3239 -11.8103 0 
897 2 26.4549 -11.8064 0 
899 2 27.586 -11.8028 0 
902 2 -27.2202 -10.5209 0 
904 2 -26.0925 -10.4842 0 
906 2 -24.9646 -10.4468 0 
908 1 -23.8352 -10.4067 0 
910 1 -22.7049 -10.3639 0 
912 1 -21.5742 -10.3201 0 
914 1 -20.443 -10.2749 0 
916 1 -19.3114 -10.2281 0 
918 1 -18.1794 -10.1798 0 
920 1 -17.0474 -10.1299 0 
922 1 -15.9149 -10.078 0 
924 1 -14.7823 -10.0243 0 
925 1 -14.1856 -10.9697 0 
926 1 -13.6495 -9.96873 0 
927 1 -13.0532 -10.9142 0 
928 1 -12.5168 -9.91119 0 
929 1 -11.9213 -10.8573 0 
930 1 -11.3845 -9.85196 0 
931 1 -10.7899 -10.7987 0 
933 1 -9.65931 -10.739 0 
935 1 -8.52963 -10.6784 0 
937 1 -7.40112 -10.6174 0 
939 1 -6.27387 -10.556 0 
941 1 -5.14775 -10.4957 0 
943 1 -4.02281 -10.4366 0 
945 1 -2.89866 -10.3807 0 
947 1 -1.77489 -10.3284 0 
949 1 -0.651169 -10.2803 0 
951 1 0.472873 -10.2367 0 
953 1 1.59741 -10.197 0 
955 1 2.72258 -10.1612 0 
957 1 3.84841 -10.1287 0 
959 1 4.97494 -10.0989 0 
961 1 6.10214 -10.072 0 
963 1 7.22972 -10.047 0 
965 1 8.35779 -10.024 0 
866 1 8.94122 -11.0048 0 
967 1 9.48627 -10.0031 0 
868 1 10.0691 -10.9842 0 
969 1 10.6152 -9.98393 0 
870 1 11.1974 -10.9653 0 
971 1 11.7442 -9.96614 0 
872 1 12.3257 -10.9478 0 
973 1 12.8735 -9.94992 0 
874 1 13.4543 -10.9318 0 
975 1 14.0031 -9.9351 0 
876 1 14.5832 -10.9171 0 
977 1 15.1328 -9.92144 0 
878 1 15.7123 -10.9036 0 
979 1 16.2625 -9.90884 0 
880 1 16.8414 -10.8912 0 
981 1 17.3924 -9.89753 0 
882 1 17.9708 -10.8798 0 
983 1 18.5224 -9.88695 0 
884 1 19.1002 -10.8695 0 
985 1 19.6524 -9.87759 0 
886 1 20.2298 -10.86 0 
987 1 20.7826 -9.86895 0 
888 1 21.3593 -10.8513 0 
890 1 22.4891 -10.8434 0 
989 1 21.9128 -9.86104 0 
892 1 23.6189 -10.8359 0 
991 1 23.0432 -9.8538 0 
894 1 24.7489 -10.8287 0 
993 1 24.1735 -9.8469 0 
896 2 25.8793 -10.8234 0 
995 2 25.3037 -9.84035 0 
898 2 27.0108 -10.8201 0 
997 2 26.4357 -9.83726 0 
900 2 28.1423 -10.817 0 
999 2 27.5677 -9.8344 0 
1001 2 -27.8125 -9.56805 0 
1003 2 -26.6854 -9.5318 0 
1005 2 -25.5581 -9.49477 0 
1007 2 -24.4305 -9.45693 0 
1009 1 -23.3007 -9.41498 0 
1011 1 -22.1704 -9.37188 0 
1013 1 -21.0398 -9.32738 0 
1015 1 -19.9088 -9.28141 0 
1017 1 -18.7773 -9.23387 0 
1019 1 -17.6455 -9.18439 0 
1021 1 -16.5134 -9.1332 0 
1023 1 -15.3807 -9.0799 0 
1025 1 -14.2478 -9.02459 0 
1027 1 -13.1148 -8.96698 0 
1029 1 -11.9818 -8.90725 0 
932 1 -10.2529 -9.79097 0 
1031 1 -10.8491 -8.84538 0 
934 1 -9.12204 -9.72867 0 
1033 1 -9.71705 -8.78155 0 
936 1 -7.99233 -9.66536 0 
1035 1 -8.58606 -8.71628 0 
938 1 -6.86408 -9.60146 0 
940 1 -5.73708 -9.5379 0 
942 1 -4.6115 -9.47535 0 
944 1 -3.48691 -9.41553 0 
946 1 -2.363 -9.35971 0 
948 1 -1.23919 -9.30847 0 
950 1 -0.115024 -9.2623 0 
952 1 1.00977 -9.2209 0 
954 1 2.13539 -9.18354 0 
956 1 3.26169 -9.15003 0 
958 1 4.38874 -9.11969 0 
960 1 5.5166 -9.09202 0 
962 1 6.64483 -9.06666 0 
964 1 7.77362 -9.04334 0 
966 1 8.90291 -9.02197 0 
968 1 10.0324 -9.00241 0 
970 1 11.1623 -8.98452 0 
972 1 12.2924 -8.96794 0 
974 1 13.4227 -8.95291 0 
976 1 14.553 -8.93911 0 
978 1 15.6833 -8.92649 0 
980 1 16.8139 -8.91507 0 
982 1 17.9444 -8.90453 0 
984 1 19.0751 -8.89495 0 
986 1 20.2059 -8.88647 0 
988 1 21.3366 -8.87862 0 
990 1 22.4675 -8.8716 0 
992 1 23.5984 -8.86488 0 
994 1 24.7295 -8.85864 0 
996 2 25.8608 -8.85435 0 
998 2 26.9933 -8.85174 0 
1000 2 28.1257 -8.84931 0 
1002 2 -27.2783 -8.57905 0 
1101 2 -27.8711 -7.62598 0 
1004 2 -26.1516 -8.54247 0 
1103 2 -26.7449 -7.58983 0 
1006 2 -25.0246 -8.50509 0 
1105 2 -25.6186 -7.5529 0 
1008 1 -23.8962 -8.46539 0 
1107 2 -24.492 -7.51516 0 
1010 1 -22.7669 -8.42327 0 
1012 1 -21.6371 -8.3797 0 
1014 1 -20.5068 -8.33455 0 
1016 1 -19.3759 -8.28787 0 
1018 1 -18.2447 -8.23924 0 
1020 1 -17.113 -8.18865 0 
1022 1 -15.9808 -8.13618 0 
1024 1 -14.8481 -8.08143 0 
1026 1 -13.7151 -8.02414 0 
1028 1 -12.5817 -7.96452 0 
1030 1 -11.4483 -7.90224 0 
1032 1 -10.3151 -7.83733 0 
1034 1 -9.18264 -7.77033 0 
1036 1 -8.05151 -7.70138 0 
1037 1 -7.45648 -8.64974 0 
1038 1 -6.92189 -7.63133 0 
1039 1 -6.32832 -8.58296 0 
1041 1 -5.20172 -8.51662 0 
1043 1 -4.07652 -8.4525 0 
1045 1 -2.95229 -8.39224 0 
1047 1 -1.82843 -8.33738 0 
1049 1 -0.70426 -8.28824 0 
1051 1 0.420723 -8.24468 0 
1053 1 1.54662 -8.20591 0 
1055 1 2.67352 -8.17132 0 
1057 1 3.80134 -8.14024 0 
1059 1 4.92991 -8.11206 0 
1061 1 6.05908 -8.08613 0 
1063 1 7.18875 -8.06255 0 
1065 1 8.31894 -8.04092 0 
1067 1 9.44937 -8.02093 0 
1069 1 10.58 -8.00277 0 
1071 1 11.7108 -7.9861 0 
1073 1 12.8419 -7.97076 0 
1075 1 13.9729 -7.95671 0 
1077 1 15.1041 -7.94399 0 
1079 1 16.2354 -7.93248 0 
1081 1 17.3667 -7.92197 0 
1083 1 18.498 -7.91238 0 
1085 1 19.6294 -7.90389 0 
1087 1 20.7607 -7.89599 0 
1089 1 21.8921 -7.8891 0 
1091 1 23.0234 -7.88263 0 
1093 1 24.1547 -7.8767 0 
1095 2 25.2861 -7.87134 0 
1097 2 26.419 -7.86899 0 
1099 2 27.5519 -7.8668 0 
1102 2 -27.3381 -6.63684 0 
1104 2 -26.2124 -6.60035 0 
1106 2 -25.0865 -6.56307 0 
1108 1 -23.9596 -6.52401 0 
1109 1 -23.3634 -7.47401 0 
1110 1 -22.8318 -6.4825 0 
1111 1 -22.2345 -7.43138 0 
1112 1 -21.7034 -6.43952 0 
1113 1 -21.1051 -7.38737 0 
1114 1 -20.5745 -6.39499 0 
1115 1 -19.9752 -7.34166 0 
1116 1 -19.4451 -6.34848 0 
1117 1 -18.8447 -7.29402 0 
1119 1 -17.7138 -7.2444 0 
1121 1 -16.5823 -7.19269 0 
1123 1 -15.4502 -7.13887 0 
1125 1 -14.3175 -7.08239 0 
1127 1 -13.1842 -7.02327 0 
1129 1 -12.0505 -6.96127 0 
1131 1 -10.9166 -6.89597 0 
1133 1 -9.78291 -6.82784 0 
1135 1 -8.65008 -6.75678 0 
1137 1 -7.51863 -6.68361 0 
1139 1 -6.38915 -6.6093 0 
1040 1 -5.79409 -7.56109 0 
1141 1 -5.26185 -6.53508 0 
1042 1 -4.66806 -7.49209 0 
1143 1 -4.13658 -6.46353 0 
1044 1 -3.54344 -7.42668 0 
1046 1 -2.41936 -7.36718 0 
1048 1 -1.2951 -7.31454 0 
1050 1 -0.169925 -7.26849 0 
1052 1 0.956382 -7.22796 0 
1054 1 2.08391 -7.19241 0 
1056 1 3.2125 -7.16064 0 
1058 1 4.34195 -7.13193 0 
1060 1 5.47212 -7.10579 0 
1062 1 6.60294 -7.08169 0 
1064 1 7.734 -7.05978 0 
1066 1 8.86539 -7.03968 0 
1068 1 9.99708 -7.02112 0 
1070 1 11.1289 -7.00422 0 
1072 1 12.2608 -6.98871 0 
1074 1 13.3927 -6.97439 0 
1076 1 14.5248 -6.96156 0 
1078 1 15.6568 -6.94989 0 
1080 1 16.7889 -6.93918 0 
1082 1 17.9209 -6.92969 0 
1084 1 19.0528 -6.92112 0 
1086 1 20.1848 -6.91335 0 
1088 1 21.3168 -6.90634 0 
1090 1 22.4486 -6.90009 0 
1092 1 23.5805 -6.89443 0 
1094 1 24.7126 -6.88951 0 
1096 2 25.8451 -6.88616 0 
1098 2 26.9784 -6.88422 0 
1100 2 28.1116 -6.88241 0 
1201 2 -27.9311 -5.68349 0 
1203 2 -26.806 -5.64742 0 
1205 2 -25.6808 -5.61059 0 