ITEM: TIMESTEP
4000
ITEM: NUMBER OF ATOMS
2850
ITEM: BOX BOUNDS ff ff pp
-42.092 42.092
-42.092 42.092
-0.280613 0.280613
ITEM: ATOMS id type xu yu zu 
1 2 -27.3398 -28.9988 0 
3 2 -26.2107 -28.9642 0 
5 2 -25.0816 -28.9291 0 
7 2 -23.9525 -28.8936 0 
9 2 -22.8235 -28.8577 0 
11 2 -21.6944 -28.8213 0 
13 2 -20.5655 -28.7844 0 
15 2 -19.4366 -28.7472 0 
17 2 -18.3079 -28.7095 0 
19 2 -17.1793 -28.6715 0 
21 2 -16.0508 -28.6331 0 
23 2 -14.9226 -28.5944 0 
25 2 -13.7947 -28.5554 0 
27 2 -12.667 -28.5163 0 
29 2 -11.5396 -28.477 0 
31 2 -10.4126 -28.4376 0 
33 2 -9.28592 -28.3982 0 
35 2 -8.15967 -28.3589 0 
37 2 -7.03386 -28.3198 0 
39 2 -5.90848 -28.281 0 
2 2 -26.7941 -28.0086 0 
4 2 -25.6649 -27.9736 0 
6 2 -24.5357 -27.9381 0 
8 2 -23.4065 -27.902 0 
10 2 -22.2773 -27.8656 0 
12 2 -21.1481 -27.8286 0 
14 2 -20.019 -27.7912 0 
16 2 -18.89 -27.7533 0 
18 2 -17.7611 -27.715 0 
20 2 -16.6324 -27.6763 0 
22 2 -15.5039 -27.6373 0 
24 2 -14.3755 -27.5979 0 
26 2 -13.2475 -27.5582 0 
28 2 -12.1197 -27.5183 0 
30 2 -10.9923 -27.4783 0 
32 2 -9.86522 -27.4382 0 
34 2 -8.73856 -27.3981 0 
36 2 -7.61233 -27.3581 0 
38 2 -6.48656 -27.3184 0 
40 2 -5.36126 -27.2789 0 
41 2 -4.78357 -28.2426 0 
42 2 -4.23645 -27.24 0 
43 2 -3.65912 -28.2046 0 
44 2 -3.11213 -27.2015 0 
45 2 -2.53513 -28.1673 0 
46 2 -1.98828 -27.1638 0 
47 2 -1.41159 -28.1307 0 
48 2 -0.8649 -27.1269 0 
49 2 -0.288464 -28.095 0 
51 2 0.834263 -28.0602 0 
53 2 1.95663 -28.0264 0 
55 2 3.07869 -27.9937 0 
57 2 4.20048 -27.9622 0 
59 2 5.32207 -27.9319 0 
61 2 6.4435 -27.9029 0 
63 2 7.56483 -27.8752 0 
65 2 8.68613 -27.8488 0 
67 2 9.80743 -27.8237 0 
69 2 10.9288 -27.8 0 
71 2 12.0503 -27.7775 0 
73 2 13.1719 -27.7563 0 
75 2 14.2937 -27.7363 0 
77 2 15.4157 -27.7174 0 
79 2 16.538 -27.6997 0 
81 2 17.6605 -27.683 0 
83 2 18.7832 -27.6673 0 
85 2 19.9063 -27.6526 0 
87 2 21.0296 -27.6388 0 
89 2 22.1532 -27.6258 0 
91 2 23.2771 -27.6136 0 
93 2 24.4012 -27.6022 0 
95 2 25.5256 -27.5914 0 
97 2 26.6503 -27.5812 0 
99 2 27.7752 -27.5717 0 
101 2 -27.378 -27.0533 0 
103 2 -26.2487 -27.0183 0 
102 2 -26.833 -26.0633 0 
105 2 -25.1194 -26.9828 0 
104 2 -25.7037 -26.0278 0 
107 2 -23.9901 -26.9468 0 
106 2 -24.5742 -25.9918 0 
109 2 -22.8607 -26.9102 0 
108 1 -23.4444 -25.955 0 
111 2 -21.7314 -26.8732 0 
113 2 -20.6021 -26.8357 0 
115 2 -19.4729 -26.7977 0 
117 2 -18.3437 -26.7591 0 
119 2 -17.2147 -26.7202 0 
121 2 -16.0858 -26.6808 0 
123 2 -14.9572 -26.641 0 
125 2 -13.8287 -26.6009 0 
127 2 -12.7006 -26.5605 0 
129 2 -11.5727 -26.5198 0 
131 2 -10.4452 -26.479 0 
133 2 -9.31813 -26.4382 0 
135 2 -8.19146 -26.3973 0 
137 2 -7.06526 -26.3566 0 
139 2 -5.93954 -26.3162 0 
141 2 -4.81433 -26.2762 0 
143 2 -3.68963 -26.2366 0 
145 2 -2.56545 -26.1977 0 
147 2 -1.44177 -26.1596 0 
50 2 0.258046 -27.0909 0 
149 2 -0.318563 -26.1224 0 
52 2 1.38059 -27.056 0 
151 2 0.804196 -26.0862 0 
54 2 2.50279 -27.0222 0 
153 2 1.92656 -26.0512 0 
56 2 3.62468 -26.9896 0 
155 2 3.04857 -26.0174 0 
58 2 4.74633 -26.9582 0 
157 2 4.1703 -25.9849 0 
60 2 5.86779 -26.9282 0 
159 2 5.2918 -25.9538 0 
62 2 6.98913 -26.8996 0 
64 2 8.11041 -26.8723 0 
66 2 9.23169 -26.8465 0 
68 2 10.353 -26.822 0 
70 2 11.4745 -26.7989 0 
72 2 12.596 -26.7771 0 
74 2 13.7178 -26.7566 0 
76 2 14.8398 -26.7373 0 
78 2 15.962 -26.7192 0 
80 2 17.0845 -26.7023 0 
82 2 18.2073 -26.6863 0 
84 2 19.3304 -26.6714 0 
86 2 20.4538 -26.6575 0 
88 2 21.5774 -26.6444 0 
90 2 22.7014 -26.6321 0 
92 2 23.8256 -26.6206 0 
94 2 24.9501 -26.6098 0 
96 2 26.0749 -26.5996 0 
98 2 27.2 -26.5901 0 
100 2 28.3253 -26.5811 0 
201 2 -27.4179 -25.1085 0 
203 2 -26.2885 -25.0731 0 
205 2 -25.159 -25.0372 0 
207 2 -24.0295 -25.0007 0 
209 1 -22.8992 -24.9629 0 
110 1 -22.3147 -25.9177 0 
211 1 -21.7692 -24.9244 0 
112 1 -21.1851 -25.8796 0 
213 1 -20.6393 -24.8857 0 
114 1 -20.0555 -25.8413 0 
215 1 -19.5094 -24.8465 0 
116 1 -18.9261 -25.8024 0 
217 1 -18.38 -24.8068 0 
118 1 -17.7969 -25.7631 0 
120 1 -16.6678 -25.7233 0 
122 1 -15.539 -25.683 0 
124 1 -14.4104 -25.6426 0 
126 1 -13.2822 -25.6017 0 
128 1 -12.1543 -25.5605 0 
130 1 -11.0269 -25.5191 0 
132 1 -9.89969 -25.4775 0 
134 1 -8.7731 -25.4361 0 
136 1 -7.64695 -25.3946 0 
138 1 -6.52125 -25.3532 0 
140 1 -5.39591 -25.3121 0 
142 1 -4.27109 -25.2717 0 
144 1 -3.14681 -25.2318 0 
146 1 -2.02304 -25.1927 0 
148 1 -0.899531 -25.1543 0 
150 1 0.223346 -25.1172 0 
152 1 1.34592 -25.0811 0 
154 1 2.46821 -25.0465 0 
156 1 3.59015 -25.013 0 
158 1 4.71197 -24.9811 0 
160 1 5.83377 -24.9502 0 
161 2 6.41316 -25.9242 0 
162 1 6.95548 -24.9213 0 
163 2 7.53443 -25.896 0 
164 1 8.07717 -24.8941 0 
165 2 8.65568 -25.8693 0 
167 2 9.77697 -25.844 0 
166 1 9.19879 -24.868 0 
169 2 10.8984 -25.8202 0 
168 1 10.3205 -24.8434 0 
171 2 12.0199 -25.7978 0 
170 1 11.4425 -24.8204 0 
173 2 13.1416 -25.7768 0 
175 2 14.2636 -25.7571 0 
177 2 15.3858 -25.7386 0 
179 2 16.5083 -25.7213 0 
181 2 17.6311 -25.7052 0 
183 2 18.7543 -25.6901 0 
185 2 19.8777 -25.6759 0 
187 2 21.0014 -25.6627 0 
189 2 22.1254 -25.6504 0 
191 2 23.2498 -25.6388 0 
193 2 24.3744 -25.628 0 
195 2 25.4993 -25.6179 0 
197 2 26.6245 -25.6084 0 
199 2 27.75 -25.5994 0 
202 2 -26.8739 -24.1187 0 
204 2 -25.7444 -24.0828 0 
206 2 -24.6148 -24.0464 0 
208 1 -23.4845 -24.0088 0 
210 1 -22.3541 -23.97 0 
212 1 -21.2239 -23.9308 0 
214 1 -20.0939 -23.8914 0 
216 1 -18.9639 -23.8511 0 
219 1 -17.2507 -24.7666 0 
218 1 -17.8344 -23.8107 0 
221 1 -16.1216 -24.726 0 
220 1 -16.705 -23.7697 0 
222 1 -15.5759 -23.728 0 
223 1 -14.9926 -24.6849 0 
224 1 -14.447 -23.6861 0 
225 1 -13.8642 -24.6435 0 
227 1 -12.7363 -24.6017 0 
229 1 -11.6088 -24.5598 0 
231 1 -10.4815 -24.5177 0 
233 1 -9.35459 -24.4752 0 
235 1 -8.22829 -24.433 0 
237 1 -7.10244 -24.3908 0 
239 1 -5.97702 -24.3488 0 
241 1 -4.85191 -24.3072 0 
243 1 -3.72753 -24.2664 0 
245 1 -2.60383 -24.2261 0 
247 1 -1.48049 -24.1871 0 
249 1 -0.3573 -24.1485 0 
251 1 0.765333 -24.1115 0 
253 1 1.88773 -24.076 0 
255 1 3.01001 -24.0414 0 
257 1 4.13212 -24.0084 0 
259 1 5.25406 -23.977 0 
261 1 6.37619 -23.9468 0 
263 1 7.49819 -23.919 0 
265 1 8.62002 -23.8923 0 
267 1 9.74201 -23.8668 0 
269 1 10.8644 -23.8433 0 
271 1 11.9868 -23.8211 0 
172 1 12.5646 -24.7988 0 
273 1 13.1095 -23.8004 0 
174 1 13.6868 -24.7788 0 
275 1 14.2322 -23.7812 0 
176 1 14.8093 -24.7599 0 
277 1 15.3553 -23.763 0 
178 1 15.9321 -24.7421 0 
279 1 16.4786 -23.746 0 
180 1 17.0552 -24.7255 0 
281 1 17.6022 -23.7302 0 
182 1 18.1786 -24.7101 0 
283 1 18.726 -23.7154 0 
184 1 19.3021 -24.6956 0 
285 1 19.85 -23.7018 0 
186 1 20.426 -24.6823 0 
287 1 20.9743 -23.6889 0 
188 1 21.55 -24.6697 0 
289 1 22.0987 -23.677 0 
190 1 22.6745 -24.6579 0 
291 1 23.2235 -23.6656 0 
192 1 23.7991 -24.6467 0 
293 1 24.3484 -23.6548 0 
194 1 24.9239 -24.6364 0 
295 2 25.4729 -23.6443 0 
196 2 26.0488 -24.6264 0 
198 2 27.1745 -24.6176 0 
200 2 28.3003 -24.6093 0 
301 2 -27.4598 -23.1644 0 
303 2 -26.3303 -23.1287 0 
305 2 -25.2007 -23.0924 0 
307 2 -24.071 -23.0555 0 
309 1 -22.94 -23.0163 0 
311 1 -21.8094 -22.9767 0 
313 1 -20.6791 -22.9368 0 
315 1 -19.549 -22.8965 0 
317 1 -18.419 -22.8554 0 
319 1 -17.2892 -22.8141 0 
321 1 -16.1597 -22.7719 0 
323 1 -15.0305 -22.7293 0 
226 1 -13.3186 -23.6435 0 
325 1 -13.9019 -22.6865 0 
327 1 -12.7737 -22.6431 0 
228 1 -12.1909 -23.601 0 
329 1 -11.6459 -22.5995 0 
230 1 -11.0636 -23.5583 0 
331 1 -10.5188 -22.5558 0 
232 1 -9.93673 -23.5152 0 
333 1 -9.39208 -22.5119 0 
234 1 -8.81011 -23.4721 0 
236 1 -7.684 -23.429 0 
238 1 -6.55844 -23.3861 0 
240 1 -5.4333 -23.3437 0 
242 1 -4.30875 -23.3016 0 
244 1 -3.18487 -23.2602 0 
246 1 -2.06128 -23.22 0 
248 1 -0.938105 -23.1806 0 
250 1 0.184849 -23.1421 0 
252 1 1.30741 -23.1054 0 
254 1 2.42978 -23.0703 0 
256 1 3.55222 -23.036 0 
258 1 4.67462 -23.0037 0 
260 1 5.7968 -22.9729 0 
262 1 6.91905 -22.9438 0 
264 1 8.04123 -22.9165 0 
266 1 9.16345 -22.8905 0 
268 1 10.2859 -22.8663 0 
270 1 11.4086 -22.8435 0 
272 1 12.5315 -22.8222 0 
274 1 13.6546 -22.8023 0 
276 1 14.778 -22.7839 0 
278 1 15.9016 -22.7664 0 
280 1 17.0254 -22.7504 0 
282 1 18.1494 -22.7353 0 
284 1 19.2736 -22.7214 0 
286 1 20.3979 -22.7082 0 
288 1 21.5226 -22.6958 0 
290 1 22.6475 -22.6845 0 
292 1 23.7725 -22.6735 0 
294 1 24.8975 -22.6629 0 
297 2 26.5987 -23.6355 0 
296 2 26.0228 -22.6533 0 
299 2 27.7248 -23.6273 0 
298 2 27.149 -22.6452 0 
300 2 28.2755 -22.6376 0 
302 2 -26.9167 -22.1747 0 
304 2 -25.7871 -22.1385 0 
306 2 -24.6574 -22.1018 0 
308 1 -23.5267 -22.0633 0 
310 1 -22.3961 -22.0234 0 
312 1 -21.2654 -21.9832 0 
314 1 -20.1348 -21.9424 0 
316 1 -19.0046 -21.901 0 
318 1 -17.8743 -21.8593 0 
320 1 -16.7446 -21.8168 0 
322 1 -15.6151 -21.7737 0 
324 1 -14.486 -21.7299 0 
326 1 -13.3575 -21.6862 0 
328 1 -12.2294 -21.642 0 
330 1 -11.1018 -21.5972 0 
332 1 -9.97476 -21.5525 0 
334 1 -8.8482 -21.5077 0 
335 1 -8.26584 -22.468 0 
336 1 -7.72227 -21.463 0 
337 1 -7.14006 -22.4241 0 
338 1 -6.59664 -21.4184 0 
339 1 -6.0147 -22.3807 0 
340 1 -5.4716 -21.3741 0 
341 1 -4.89005 -22.3375 0 
343 1 -3.76595 -22.2949 0 
345 1 -2.64203 -22.2534 0 
347 1 -1.5187 -22.213 0 
349 1 -0.395714 -22.1734 0 
351 1 0.727169 -22.1352 0 
353 1 1.84985 -22.099 0 
355 1 2.97216 -22.064 0 
357 1 4.09472 -22.0305 0 
359 1 5.21707 -21.9987 0 
361 1 6.33939 -21.9689 0 
363 1 7.46181 -21.9409 0 
365 1 8.58439 -21.9142 0 
367 1 9.70723 -21.8892 0 
369 1 10.83 -21.8658 0 
371 1 11.953 -21.8439 0 
373 1 13.0763 -21.8236 0 
375 1 14.1999 -21.8048 0 
377 1 15.3237 -21.7869 0 
379 1 16.4478 -21.7704 0 
381 1 17.5721 -21.7552 0 
383 1 18.6966 -21.7409 0 
385 1 19.8212 -21.7276 0 
387 1 20.946 -21.7148 0 
389 1 22.0711 -21.703 0 
391 1 23.1962 -21.6922 0 
393 1 24.3215 -21.6813 0 
395 2 25.4466 -21.6709 0 
397 2 26.573 -21.6629 0 
399 2 27.6998 -21.6554 0 
401 2 -27.5037 -21.2208 0 
403 2 -26.3741 -21.1849 0 
402 2 -26.9617 -20.2313 0 
405 2 -25.2445 -21.1483 0 
404 2 -25.8321 -20.1949 0 
407 2 -24.1147 -21.111 0 
409 1 -22.9834 -21.0707 0 
411 1 -21.8524 -21.0303 0 
413 1 -20.7216 -20.9893 0 
415 1 -19.591 -20.9475 0 
417 1 -18.4604 -20.9053 0 
419 1 -17.3303 -20.8624 0 
421 1 -16.2004 -20.8189 0 
423 1 -15.071 -20.7747 0 
425 1 -13.9419 -20.7299 0 
427 1 -12.8136 -20.6852 0 
429 1 -11.6856 -20.6398 0 
431 1 -10.5578 -20.5942 0 
433 1 -9.43079 -20.5483 0 
435 1 -8.30461 -20.5026 0 
437 1 -7.17875 -20.4571 0 
439 1 -6.05333 -20.4115 0 
342 1 -4.34721 -21.3303 0 
441 1 -4.9285 -20.3666 0 
344 1 -3.22324 -21.2876 0 
443 1 -3.80424 -20.3225 0 
346 1 -2.09958 -21.2458 0 
445 1 -2.6805 -20.2794 0 
348 1 -0.976391 -21.2051 0 
447 1 -1.55725 -20.2372 0 
350 1 0.146688 -21.1658 0 
352 1 1.26938 -21.1281 0 
354 1 2.3918 -21.0919 0 
356 1 3.51434 -21.0578 0 
358 1 4.63702 -21.0248 0 
360 1 5.75975 -20.9941 0 
362 1 6.88239 -20.9653 0 
364 1 8.00508 -20.9379 0 
366 1 9.12806 -20.9123 0 
368 1 10.251 -20.888 0 
370 1 11.3743 -20.8656 0 
372 1 12.498 -20.8449 0 
374 1 13.6216 -20.8256 0 
376 1 14.7455 -20.8076 0 
378 1 15.8699 -20.7906 0 
380 1 16.9945 -20.7749 0 
382 1 18.1192 -20.7604 0 
384 1 19.2441 -20.7466 0 
386 1 20.3691 -20.7339 0 
388 1 21.4943 -20.7217 0 
390 1 22.6199 -20.7106 0 
392 1 23.7454 -20.6998 0 
394 1 24.8711 -20.6892 0 
396 2 25.9969 -20.6804 0 
398 2 27.1238 -20.673 0 
400 2 28.251 -20.6661 0 
501 2 -27.5497 -19.2779 0 
503 2 -26.4202 -19.2417 0 
505 2 -25.2906 -19.2049 0 
406 2 -24.7023 -20.1579 0 
507 2 -24.1608 -19.1673 0 
408 1 -23.5714 -20.1187 0 
509 1 -23.0292 -19.1262 0 
410 1 -22.4403 -20.0779 0 
511 1 -21.898 -19.0845 0 
412 1 -21.3093 -20.0366 0 
513 1 -20.767 -19.0425 0 
414 1 -20.1784 -19.9947 0 
416 1 -19.0476 -19.9521 0 
418 1 -17.9171 -19.9088 0 
420 1 -16.7868 -19.865 0 
422 1 -15.657 -19.8204 0 
424 1 -14.5277 -19.7751 0 
426 1 -13.3984 -19.7293 0 
428 1 -12.2698 -19.683 0 
430 1 -11.1417 -19.637 0 
432 1 -10.0141 -19.5902 0 
434 1 -8.88733 -19.5431 0 
436 1 -7.76114 -19.4966 0 
438 1 -6.63556 -19.4499 0 
440 1 -5.51041 -19.4038 0 
442 1 -4.38573 -19.3583 0 
444 1 -3.26159 -19.3137 0 
446 1 -2.13794 -19.27 0 
448 1 -1.01468 -19.2281 0 
449 1 -0.434214 -20.1968 0 
450 1 0.108028 -19.1877 0 
451 1 0.688546 -20.1577 0 
452 1 1.23062 -19.1493 0 
453 1 1.81123 -20.1205 0 
454 1 2.35351 -19.1126 0 
455 1 2.93411 -20.0849 0 
456 1 3.47644 -19.0776 0 
457 1 4.05668 -20.0513 0 
459 1 5.17959 -20.0196 0 
461 1 6.30255 -19.9897 0 
463 1 7.4255 -19.9616 0 
465 1 8.54861 -19.9353 0 
467 1 9.67165 -19.9104 0 
469 1 10.7952 -19.8873 0 
471 1 11.9192 -19.8662 0 
473 1 13.0432 -19.8463 0 
475 1 14.1672 -19.828 0 
477 1 15.2916 -19.8108 0 
479 1 16.4163 -19.7947 0 
481 1 17.5412 -19.7798 0 
483 1 18.6664 -19.7658 0 
485 1 19.7918 -19.7529 0 
487 1 20.9173 -19.7406 0 
489 1 22.043 -19.729 0 
491 1 23.1688 -19.7183 0 
493 1 24.2946 -19.7077 0 
495 2 25.4205 -19.6978 0 
497 2 26.5477 -19.6905 0 
499 2 27.6751 -19.6838 0 
502 2 -27.0088 -18.2886 0 
504 2 -25.8793 -18.252 0 
506 2 -24.7497 -18.2147 0 
508 1 -23.6187 -18.1751 0 
510 1 -22.4875 -18.1333 0 
512 1 -21.3562 -18.0908 0 
514 1 -20.2251 -18.048 0 
515 1 -19.636 -18.9997 0 
516 1 -19.094 -18.0043 0 
517 1 -18.5051 -18.9562 0 
518 1 -17.9629 -17.9599 0 
519 1 -17.3743 -18.912 0 
520 1 -16.832 -17.9145 0 
521 1 -16.244 -18.867 0 
523 1 -15.1143 -18.8211 0 
525 1 -13.9847 -18.775 0 
527 1 -12.8554 -18.7278 0 
529 1 -11.7264 -18.6806 0 
531 1 -10.5984 -18.6332 0 
533 1 -9.47108 -18.585 0 
535 1 -8.34414 -18.5371 0 
537 1 -7.21819 -18.4893 0 
539 1 -6.09276 -18.4418 0 
541 1 -4.96791 -18.395 0 
543 1 -3.84345 -18.3489 0 
545 1 -2.71954 -18.3039 0 
547 1 -1.59597 -18.2602 0 
549 1 -0.472855 -18.2182 0 
551 1 0.649873 -18.1782 0 
553 1 1.77263 -18.1404 0 
555 1 2.89555 -18.1043 0 
557 1 4.01867 -18.0706 0 
458 1 4.59942 -19.045 0 
559 1 5.14181 -18.0389 0 
460 1 5.72241 -19.0143 0 
561 1 6.26515 -18.0093 0 
462 1 6.8456 -18.9853 0 
563 1 7.38874 -17.9813 0 
464 1 7.96903 -18.9582 0 
565 1 8.51251 -17.9552 0 
466 1 9.09241 -18.9328 0 
567 1 9.6365 -17.9308 0 
468 1 10.2159 -18.909 0 
569 1 10.7608 -17.9085 0 
470 1 11.3401 -18.8875 0 
472 1 12.4643 -18.867 0 
474 1 13.5887 -18.8481 0 
476 1 14.7132 -18.8306 0 
478 1 15.8381 -18.8143 0 
480 1 16.9632 -18.7992 0 
482 1 18.0886 -18.785 0 
484 1 19.2142 -18.7718 0 
486 1 20.34 -18.7594 0 
488 1 21.4659 -18.7475 0 
490 1 22.592 -18.7367 0 
492 1 23.7183 -18.7262 0 
494 1 24.8448 -18.7161 0 
496 2 25.9714 -18.7078 0 
498 2 27.0991 -18.7012 0 
500 2 28.2271 -18.6951 0 
601 2 -27.5979 -17.3354 0 
603 2 -26.4686 -17.2992 0 
605 2 -25.3391 -17.2621 0 
607 2 -24.2094 -17.2244 0 
609 1 -23.0778 -17.1824 0 
611 1 -21.9465 -17.14 0 
613 1 -20.8152 -17.0969 0 
615 1 -19.6839 -17.0531 0 
617 1 -18.5526 -17.0085 0 
619 1 -17.4215 -16.9628 0 
522 1 -15.7016 -17.8681 0 
621 1 -16.2906 -16.9162 0 
524 1 -14.5714 -17.8214 0 
623 1 -15.1598 -16.8691 0 
526 1 -13.4419 -17.7738 0 
625 1 -14.0294 -16.8206 0 
528 1 -12.3123 -17.7259 0 
627 1 -12.8996 -16.7722 0 
530 1 -11.1835 -17.6772 0 
532 1 -10.0556 -17.6282 0 
534 1 -8.92812 -17.5792 0 
536 1 -7.80144 -17.5299 0 
538 1 -6.67554 -17.4809 0 
540 1 -5.55039 -17.4325 0 
542 1 -4.42575 -17.3851 0 
544 1 -3.30143 -17.3385 0 
546 1 -2.17778 -17.2931 0 
548 1 -1.05461 -17.2496 0 
550 1 0.068422 -17.2078 0 
552 1 1.19144 -17.1684 0 
554 1 2.31447 -17.1314 0 
556 1 3.43764 -17.0964 0 
558 1 4.56096 -17.0636 0 
560 1 5.68447 -17.0331 0 
562 1 6.80801 -17.0043 0 
564 1 7.93187 -16.9775 0 
566 1 9.05604 -16.9527 0 
568 1 10.1806 -16.9295 0 
571 1 11.885 -17.8875 0 
570 1 11.3053 -16.9081 0 
573 1 13.0095 -17.8682 0 
572 1 12.4301 -16.8881 0 
575 1 14.1345 -17.8502 0 
574 1 13.5554 -16.87 0 
577 1 15.2598 -17.8338 0 
576 1 14.681 -16.853 0 
579 1 16.3853 -17.8184 0 
578 1 15.8065 -16.8374 0 
581 1 17.5108 -17.804 0 
580 1 16.9322 -16.8228 0 
583 1 18.6366 -17.7906 0 
582 1 18.0583 -16.8092 0 
585 1 19.7625 -17.778 0 
584 1 19.1847 -16.7964 0 
587 1 20.8887 -17.7661 0 
586 1 20.3113 -16.7846 0 
589 1 22.0152 -17.7551 0 
588 1 21.438 -16.7735 0 
591 1 23.1416 -17.7446 0 
590 1 22.5648 -16.7629 0 
593 1 24.2681 -17.7346 0 
592 1 23.6917 -16.7531 0 
595 2 25.3948 -17.725 0 
594 1 24.8189 -16.7435 0 
596 2 25.9465 -16.7357 0 
597 2 26.5229 -17.7186 0 
598 2 27.0751 -16.7299 0 
599 2 27.6512 -17.7126 0 
600 2 28.2039 -16.7246 0 
602 2 -27.0583 -16.3463 0 
604 2 -25.929 -16.3096 0 
606 2 -24.7995 -16.2721 0 
608 1 -23.6685 -16.232 0 
610 1 -22.5374 -16.1895 0 
612 1 -21.4062 -16.1465 0 
614 1 -20.2748 -16.1025 0 
616 1 -19.1432 -16.0578 0 
618 1 -18.0118 -16.0121 0 
620 1 -16.8803 -15.9652 0 
622 1 -15.7491 -15.9178 0 
624 1 -14.6183 -15.869 0 
626 1 -13.4876 -15.8195 0 
628 1 -12.3578 -15.7695 0 
629 1 -11.7702 -16.7227 0 
630 1 -11.2285 -15.7184 0 
631 1 -10.6414 -16.6725 0 
632 1 -10.0994 -15.6673 0 
633 1 -9.51324 -16.6226 0 
634 1 -8.97148 -15.6153 0 
635 1 -8.3861 -16.5719 0 
637 1 -7.25963 -16.5215 0 
639 1 -6.13379 -16.4713 0 
641 1 -5.0087 -16.4221 0 
643 1 -3.88424 -16.3742 0 
645 1 -2.76031 -16.3269 0 
647 1 -1.63673 -16.2816 0 
649 1 -0.513485 -16.2383 0 
651 1 0.60964 -16.1971 0 
653 1 1.73277 -16.1586 0 
655 1 2.85598 -16.1224 0 
657 1 3.97937 -16.0886 0 
659 1 5.10312 -16.057 0 
661 1 6.2269 -16.0272 0 
663 1 7.35095 -15.9998 0 
665 1 8.47536 -15.9744 0 
667 1 9.60006 -15.9507 0 
669 1 10.7251 -15.9286 0 
671 1 11.8504 -15.9081 0 
673 1 12.9759 -15.8895 0 
675 1 14.1017 -15.8723 0 
677 1 15.2277 -15.8562 0 
679 1 16.3538 -15.8415 0 
681 1 17.4801 -15.8278 0 
683 1 18.6069 -15.8149 0 
685 1 19.7338 -15.803 0 
687 1 20.8607 -15.7917 0 
689 1 21.9878 -15.7812 0 
691 1 23.115 -15.7712 0 
693 1 24.2425 -15.762 0 
695 2 25.3699 -15.7527 0 
697 2 26.4989 -15.7471 0 
699 2 27.6281 -15.742 0 
701 2 -27.6483 -15.3934 0 
703 2 -26.5193 -15.357 0 
705 2 -25.3901 -15.3199 0 
707 2 -24.2607 -15.282 0 
709 1 -23.1292 -15.2395 0 
711 1 -21.998 -15.1965 0 
713 1 -20.8667 -15.1526 0 
715 1 -19.735 -15.108 0 
717 1 -18.6033 -15.0621 0 
719 1 -17.4716 -15.0153 0 
721 1 -16.3398 -14.9675 0 
723 1 -15.2086 -14.9184 0 
725 1 -14.0776 -14.8685 0 
727 1 -12.947 -14.8174 0 
729 1 -11.8169 -14.7656 0 
731 1 -10.6872 -14.7134 0 
733 1 -9.55843 -14.6603 0 
636 1 -7.8443 -15.5634 0 
735 1 -8.43039 -14.6069 0 
638 1 -6.71799 -15.5117 0 
737 1 -7.30326 -14.5534 0 
640 1 -5.59235 -15.4605 0 
739 1 -6.17701 -14.5004 0 
642 1 -4.46738 -15.4107 0 
644 1 -3.34339 -15.3617 0 
646 1 -2.21962 -15.3145 0 
648 1 -1.09603 -15.2693 0 
650 1 0.0271633 -15.2264 0 
652 1 1.15037 -15.1862 0 
654 1 2.27377 -15.1485 0 
656 1 3.39746 -15.1135 0 
658 1 4.52127 -15.0811 0 
660 1 5.64516 -15.0503 0 
662 1 6.76937 -15.022 0 
664 1 7.89389 -14.9958 0 
666 1 9.01881 -14.9716 0 
668 1 10.1441 -14.9492 0 
670 1 11.2697 -14.9281 0 
672 1 12.3958 -14.9092 0 
674 1 13.5221 -14.8914 0 
676 1 14.6485 -14.8752 0 
678 1 15.7751 -14.8601 0 
680 1 16.9018 -14.8462 0 
682 1 18.0287 -14.8333 0 
684 1 19.1558 -14.8213 0 
686 1 20.2831 -14.8099 0 
688 1 21.4106 -14.7994 0 
690 1 22.5382 -14.7894 0 
692 1 23.6661 -14.7802 0 
694 1 24.7941 -14.7712 0 
696 2 25.9226 -14.7642 0 
698 2 27.0521 -14.7592 0 
700 2 28.1818 -14.7547 0 
702 2 -27.11 -14.4044 0 
801 2 -27.7009 -13.4516 0 
704 2 -25.9811 -14.3676 0 
803 2 -26.5724 -13.4152 0 
706 2 -24.852 -14.3301 0 
805 2 -25.4437 -13.3781 0 
708 1 -23.7216 -14.2899 0 
807 2 -24.3146 -13.3401 0 
710 1 -22.5905 -14.2469 0 
809 1 -23.1837 -13.2976 0 
712 1 -21.4592 -14.203 0 
714 1 -20.3275 -14.1585 0 
716 1 -19.1958 -14.1128 0 
718 1 -18.0638 -14.066 0 
720 1 -16.9319 -14.0181 0 
722 1 -15.8002 -13.9688 0 
724 1 -14.6688 -13.9185 0 
726 1 -13.5377 -13.8669 0 
728 1 -12.4068 -13.8143 0 
730 1 -11.2762 -13.7612 0 
732 1 -10.1466 -13.7068 0 
734 1 -9.01776 -13.6521 0 
736 1 -7.88979 -13.597 0 
738 1 -6.7627 -13.542 0 
740 1 -5.63654 -13.4881 0 
741 1 -5.05146 -14.4485 0 
742 1 -4.51146 -13.4346 0 
743 1 -3.92695 -14.3974 0 
744 1 -3.38706 -13.3829 0 
745 1 -2.80295 -14.3482 0 
746 1 -2.26328 -13.3336 0 
747 1 -1.67916 -14.3011 0 
749 1 -0.555787 -14.256 0 
751 1 0.567568 -14.214 0 
753 1 1.69083 -14.175 0 
755 1 2.81436 -14.1385 0 
757 1 3.93848 -14.1049 0 
759 1 5.06278 -14.0734 0 
761 1 6.18737 -14.0441 0 
763 1 7.31214 -14.0172 0 
765 1 8.43729 -13.9922 0 
767 1 9.56298 -13.9695 0 
769 1 10.6889 -13.9482 0 
771 1 11.8153 -13.9286 0 
773 1 12.9419 -13.9107 0 
775 1 14.0689 -13.8941 0 
777 1 15.1958 -13.8787 0 
779 1 16.3229 -13.8644 0 
781 1 17.4503 -13.8514 0 
783 1 18.5778 -13.8393 0 
785 1 19.7053 -13.8281 0 
787 1 20.8332 -13.8174 0 
789 1 21.9613 -13.8077 0 
791 1 23.0896 -13.7985 0 
793 1 24.2179 -13.7897 0 
795 2 25.3462 -13.7811 0 
797 2 26.4761 -13.7764 0 
799 2 27.6062 -13.772 0 
802 2 -27.164 -12.4626 0 
804 2 -26.0357 -12.4259 0 
806 2 -24.9071 -12.3884 0 
808 1 -23.7769 -12.348 0 
810 1 -22.6462 -12.3051 0 
811 1 -22.0525 -13.254 0 
812 1 -21.5151 -12.2611 0 
813 1 -20.921 -13.2096 0 
814 1 -20.3837 -12.2159 0 
815 1 -19.7892 -13.164 0 
816 1 -19.2519 -12.1695 0 
817 1 -18.6574 -13.1175 0 
818 1 -18.1201 -12.1219 0 
819 1 -17.5254 -13.0696 0 
821 1 -16.3935 -13.0204 0 
823 1 -15.2615 -12.9697 0 
825 1 -14.1299 -12.9178 0 
827 1 -12.9984 -12.8647 0 
829 1 -11.867 -12.8107 0 
831 1 -10.7366 -12.7551 0 
833 1 -9.60675 -12.6991 0 
835 1 -8.47783 -12.6426 0 
837 1 -7.3499 -12.5857 0 
839 1 -6.22297 -12.5294 0 
841 1 -5.09729 -12.4737 0 
843 1 -3.97233 -12.4193 0 
845 1 -2.84812 -12.3669 0 
748 1 -1.13982 -13.2863 0 
847 1 -1.72452 -12.3174 0 
849 1 -0.600985 -12.2714 0 
750 1 -0.0162771 -13.2424 0 
851 1 0.522572 -12.2285 0 
752 1 1.10711 -13.2015 0 
853 1 1.64657 -12.189 0 
754 1 2.23062 -13.1637 0 
756 1 3.35477 -13.1289 0 
758 1 4.47933 -13.0964 0 
760 1 5.60424 -13.0664 0 
762 1 6.72972 -13.0386 0 
764 1 7.85536 -13.0129 0 
766 1 8.98136 -12.9896 0 
768 1 10.1077 -12.9679 0 
770 1 11.2345 -12.948 0 
772 1 12.3615 -12.9298 0 
774 1 13.4887 -12.9131 0 
776 1 14.6162 -12.8972 0 
778 1 15.7441 -12.8828 0 
780 1 16.8719 -12.8694 0 
782 1 17.9997 -12.8572 0 
784 1 19.1278 -12.846 0 
786 1 20.2559 -12.8355 0 
788 1 21.3846 -12.8257 0 
790 1 22.5133 -12.8167 0 
792 1 23.6418 -12.8081 0 
794 1 24.7707 -12.7997 0 
796 2 25.9 -12.7934 0 
798 2 27.0306 -12.7893 0 
800 2 28.1612 -12.7854 0 
901 2 -27.7557 -11.5099 0 
903 2 -26.6279 -11.4735 0 
905 2 -25.4997 -11.4364 0 
907 2 -24.3713 -11.3985 0 
909 1 -23.2404 -11.356 0 
911 1 -22.1097 -11.3124 0 
913 1 -20.9788 -11.2678 0 
915 1 -19.8475 -11.2219 0 
917 1 -18.7157 -11.1746 0 
820 1 -16.9879 -12.0728 0 
919 1 -17.5836 -11.126 0 
822 1 -15.8558 -12.0224 0 
921 1 -16.4513 -11.0757 0 
824 1 -14.7237 -11.97 0 
923 1 -15.3192 -11.0235 0 
826 1 -13.5915 -11.9164 0 
828 1 -12.4596 -11.8617 0 
830 1 -11.3283 -11.8052 0 
832 1 -10.1975 -11.7481 0 
834 1 -9.06776 -11.6901 0 
836 1 -7.93903 -11.6314 0 
838 1 -6.81111 -11.5729 0 
840 1 -5.68439 -11.5145 0 
842 1 -4.55884 -11.4575 0 
844 1 -3.43448 -11.402 0 
846 1 -2.31048 -11.3495 0 
848 1 -1.18675 -11.3008 0 
850 1 -0.0632752 -11.2559 0 
852 1 1.06082 -11.2145 0 
855 1 2.77093 -12.1529 0 
854 1 2.18542 -11.1768 0 
857 1 3.89552 -12.1195 0 
856 1 3.31045 -11.1423 0 
859 1 5.0206 -12.0883 0 
858 1 4.43585 -11.1104 0 
861 1 6.14621 -12.0601 0 
860 1 5.56205 -11.0814 0 
863 1 7.27245 -12.0338 0 
862 1 6.68864 -11.0547 0 
865 1 8.39907 -12.0096 0 
864 1 7.81585 -11.0299 0 
867 1 9.52601 -11.9877 0 
869 1 10.6532 -11.9672 0 
871 1 11.7807 -11.9486 0 
873 1 12.9084 -11.9316 0 
875 1 14.0362 -11.9157 0 
877 1 15.1644 -11.9012 0 
879 1 16.2928 -11.8874 0 
881 1 17.4213 -11.8751 0 
883 1 18.55 -11.8638 0 
885 1 19.6786 -11.8533 0 
887 1 20.8076 -11.8438 0 
889 1 21.9367 -11.8347 0 
891 1 23.0657 -11.8261 0 
893 1 24.1948 -11.8182 0 
895 2 25.3239 -11.8103 0 
897 2 26.4549 -11.8064 0 
899 2 27.586 -11.8028 0 
902 2 -27.2202 -10.5209 0 
904 2 -26.0925 -10.4842 0 
906 2 -24.9646 -10.4468 0 
908 1 -23.8351 -10.4067 0 
910 1 -22.705 -10.3636 0 
912 1 -21.5744 -10.3196 0 
914 1 -20.4436 -10.2743 0 
916 1 -19.3122 -10.2276 0 
918 1 -18.1805 -10.1793 0 
920 1 -17.0485 -10.1297 0 
922 1 -15.9163 -10.0779 0 
924 1 -14.7838 -10.0244 0 
925 1 -14.1868 -10.9698 0 
926 1 -13.6509 -9.96907 0 
927 1 -13.0541 -10.9144 0 
928 1 -12.518 -9.91139 0 
929 1 -11.9221 -10.8574 0 
930 1 -11.3854 -9.85261 0 
931 1 -10.7903 -10.7992 0 
933 1 -9.65944 -10.7397 0 
935 1 -8.52948 -10.6793 0 
937 1 -7.40053 -10.6184 0 
939 1 -6.27304 -10.5575 0 
941 1 -5.14657 -10.4975 0 
943 1 -4.02165 -10.4386 0 
945 1 -2.89746 -10.383 0 
947 1 -1.77342 -10.3312 0 
949 1 -0.649712 -10.2833 0 
951 1 0.474302 -10.2404 0 
953 1 1.599 -10.2008 0 
955 1 2.72439 -10.165 0 
957 1 3.85036 -10.1323 0 
959 1 4.97704 -10.1024 0 
961 1 6.10415 -10.0751 0 
963 1 7.23188 -10.0501 0 
965 1 8.35992 -10.0271 0 
866 1 8.94339 -11.0073 0 
967 1 9.48839 -10.0057 0 
868 1 10.0711 -10.9865 0 
969 1 10.6171 -9.98609 0 
870 1 11.1993 -10.9673 0 
971 1 11.7463 -9.96841 0 
872 1 12.3277 -10.95 0 
973 1 12.8755 -9.95208 0 
874 1 13.4561 -10.9339 0 
975 1 14.0048 -9.93705 0 
876 1 14.5848 -10.9191 0 
977 1 15.1344 -9.92351 0 
878 1 15.7136 -10.9056 0 
979 1 16.2641 -9.91087 0 
880 1 16.8428 -10.8931 0 
981 1 17.3938 -9.89938 0 
882 1 17.972 -10.8816 0 
983 1 18.5237 -9.8888 0 
884 1 19.1013 -10.8711 0 
985 1 19.6536 -9.87908 0 
886 1 20.2305 -10.8614 0 
987 1 20.7836 -9.87029 0 
888 1 21.3599 -10.8525 0 
890 1 22.4895 -10.8442 0 
989 1 21.9137 -9.86202 0 
892 1 23.6193 -10.8363 0 
991 1 23.0436 -9.8544 0 
894 1 24.7492 -10.829 0 
993 1 24.1738 -9.84736 0 
896 2 25.8793 -10.8234 0 
995 2 25.3037 -9.84035 0 
898 2 27.0108 -10.8201 0 
997 2 26.4357 -9.83726 0 
900 2 28.1423 -10.817 0 
999 2 27.5677 -9.8344 0 
1001 2 -27.8125 -9.56805 0 
1003 2 -26.6854 -9.5318 0 
1005 2 -25.5581 -9.49477 0 
1007 2 -24.4305 -9.45693 0 
1009 1 -23.3008 -9.41466 0 
1011 1 -22.1708 -9.37147 0 
1013 1 -21.0405 -9.32661 0 
1015 1 -19.9098 -9.28083 0 
1017 1 -18.7785 -9.23318 0 
1019 1 -17.6467 -9.18392 0 
1021 1 -16.5148 -9.13287 0 
1023 1 -15.3823 -9.07984 0 
1025 1 -14.2494 -9.02497 0 
1027 1 -13.1163 -8.96738 0 
1029 1 -11.9829 -8.90788 0 
932 1 -10.2535 -9.79174 0 
1031 1 -10.8501 -8.84633 0 
934 1 -9.12251 -9.72964 0 
1033 1 -9.71783 -8.78267 0 
936 1 -7.99239 -9.66672 0 
1035 1 -8.58644 -8.71768 0 
938 1 -6.86372 -9.60277 0 
940 1 -5.73634 -9.53979 0 
942 1 -4.61066 -9.47741 0 
944 1 -3.48591 -9.41799 0 
946 1 -2.36175 -9.36263 0 
948 1 -1.23787 -9.31153 0 
950 1 -0.113392 -9.266 0 
952 1 1.01148 -9.22485 0 
954 1 2.13706 -9.18774 0 
956 1 3.26343 -9.15405 0 
958 1 4.39061 -9.12359 0 
960 1 5.51849 -9.09551 0 
962 1 6.64692 -9.07015 0 
964 1 7.77588 -9.04661 0 
966 1 8.90503 -9.02506 0 
968 1 10.0345 -9.00491 0 
970 1 11.1644 -8.98691 0 
972 1 12.2943 -8.97044 0 
974 1 13.4244 -8.95498 0 
976 1 14.5548 -8.94126 0 
978 1 15.6851 -8.92867 0 
980 1 16.8155 -8.91687 0 
982 1 17.9458 -8.90627 0 
984 1 19.0764 -8.8966 0 
986 1 20.2069 -8.88792 0 
988 1 21.3376 -8.87981 0 
990 1 22.4681 -8.87229 0 
992 1 23.5988 -8.86533 0 
994 1 24.7296 -8.85895 0 
996 2 25.8608 -8.85435 0 
998 2 26.9933 -8.85174 0 
1000 2 28.1257 -8.84931 0 
1002 2 -27.2783 -8.57905 0 
1101 2 -27.8711 -7.62598 0 
1004 2 -26.1516 -8.54247 0 
1103 2 -26.7449 -7.58983 0 
1006 2 -25.0246 -8.50509 0 
1105 2 -25.6186 -7.5529 0 
1008 1 -23.8961 -8.46522 0 
1107 2 -24.492 -7.51516 0 
1010 1 -22.767 -8.42273 0 
1012 1 -21.6378 -8.37891 0 
1014 1 -20.5077 -8.33376 0 
1016 1 -19.3772 -8.28711 0 
1018 1 -18.2461 -8.23867 0 
1020 1 -17.1146 -8.18814 0 
1022 1 -15.9826 -8.13599 0 
1024 1 -14.8499 -8.08167 0 
1026 1 -13.7169 -8.02464 0 
1028 1 -12.5833 -7.9652 0 
1030 1 -11.4496 -7.9031 0 
1032 1 -10.3163 -7.83854 0 
1034 1 -9.18341 -7.77183 0 
1036 1 -8.05194 -7.70279 0 
1037 1 -7.45668 -8.6512 0 
1038 1 -6.92183 -7.63334 0 
1039 1 -6.32806 -8.58488 0 
1041 1 -5.20128 -8.5188 0 
1043 1 -4.07591 -8.45507 0 
1045 1 -2.95153 -8.39538 0 
1047 1 -1.82751 -8.34056 0 
1049 1 -0.702859 -8.29222 0 
1051 1 0.42233 -8.24881 0 
1053 1 1.54846 -8.21014 0 
1055 1 2.6755 -8.17565 0 
1057 1 3.80347 -8.14443 0 
1059 1 4.93202 -8.11602 0 
1061 1 6.06136 -8.09005 0 
1063 1 7.19109 -8.06633 0 
1065 1 8.32121 -8.04412 0 
1067 1 9.45137 -8.02383 0 
1069 1 10.5821 -8.00544 0 
1071 1 11.7129 -7.98854 0 
1073 1 12.8437 -7.97324 0 
1075 1 13.9748 -7.95912 0 
1077 1 15.106 -7.94632 0 
1079 1 16.2371 -7.93461 0 
1081 1 17.3682 -7.92361 0 
1083 1 18.4992 -7.91407 0 
1085 1 19.6303 -7.90514 0 
1087 1 20.7614 -7.89751 0 
1089 1 21.8927 -7.89006 0 
1091 1 23.024 -7.88318 0 
1093 1 24.1552 -7.87707 0 
1095 2 25.2861 -7.87134 0 
1097 2 26.419 -7.86899 0 
1099 2 27.5519 -7.8668 0 
1102 2 -27.3381 -6.63684 0 
1104 2 -26.2124 -6.60035 0 
1106 2 -25.0865 -6.56307 0 
1108 1 -23.9595 -6.52364 0 
1109 1 -23.3635 -7.4735 0 
1110 1 -22.8318 -6.48168 0 
1111 1 -22.2349 -7.43058 0 
1112 1 -21.7035 -6.43855 0 
1113 1 -21.1056 -7.3864 0 
1114 1 -20.575 -6.39368 0 
1115 1 -19.9759 -7.34062 0 
1116 1 -19.4459 -6.3471 0 
1117 1 -18.8458 -7.29312 0 
1119 1 -17.7152 -7.24366 0 
1121 1 -16.584 -7.1923 0 
1123 1 -15.452 -7.13885 0 
1125 1 -14.3194 -7.08275 0 
1127 1 -13.1861 -7.02395 0 
1129 1 -12.0522 -6.96227 0 
1131 1 -10.9181 -6.89713 0 
1133 1 -9.78399 -6.82941 0 
1135 1 -8.65077 -6.75838 0 
1137 1 -7.51889 -6.68568 0 
1139 1 -6.38912 -6.61151 0 
1040 1 -5.79384 -7.56319 0 
1141 1 -5.26156 -6.53756 0 
1042 1 -4.66773 -7.49473 0 
1143 1 -4.13594 -6.46706 0 
1044 1 -3.54277 -7.43 0 
1046 1 -2.41849 -7.37061 0 
1048 1 -1.29367 -7.31868 0 
1050 1 -0.168299 -7.27284 0 
1052 1 0.958374 -7.23255 0 
1054 1 2.08618 -7.19693 0 
1056 1 3.2148 -7.16505 0 
1058 1 4.34419 -7.13598 0 
1060 1 5.47442 -7.10978 0 
1062 1 6.60519 -7.08566 0 
1064 1 7.73622 -7.06344 0 
1066 1 8.86776 -7.04263 0 
1068 1 9.99939 -7.02412 0 
1070 1 11.1312 -7.00698 0 
1072 1 12.2631 -6.99123 0 
1074 1 13.3948 -6.97698 0 
1076 1 14.5267 -6.96406 0 
1078 1 15.6584 -6.95229 0 
1080 1 16.7902 -6.94131 0 
1082 1 17.9221 -6.93139 0 
1084 1 19.0538 -6.92256 0 
1086 1 20.1858 -6.91466 0 
1088 1 21.3174 -6.90769 0 
1090 1 22.4491 -6.90098 0 
1092 1 23.5809 -6.89487 0 
1094 1 24.7128 -6.88964 0 
1096 2 25.8451 -6.88616 0 
1098 2 26.9784 -6.88422 0 
1100 2 28.1116 -6.88241 0 
1201 2 -27.9311 -5.68349 0 
1203 2 -26.806 -5.64742 0 
1205 2 -25.6808 -5.61059 0 