ITEM: TIMESTEP
3500
ITEM: NUMBER OF ATOMS
2850
ITEM: BOX BOUNDS ff ff pp
-42.092 42.092
-42.092 42.092
-0.280613 0.280613
ITEM: ATOMS id type xu yu zu 
1 2 -27.3398 -28.9988 0 
3 2 -26.2107 -28.9642 0 
5 2 -25.0816 -28.9291 0 
7 2 -23.9525 -28.8936 0 
9 2 -22.8235 -28.8577 0 
11 2 -21.6944 -28.8213 0 
13 2 -20.5655 -28.7844 0 
15 2 -19.4366 -28.7472 0 
17 2 -18.3079 -28.7095 0 
19 2 -17.1793 -28.6715 0 
21 2 -16.0508 -28.6331 0 
23 2 -14.9226 -28.5944 0 
25 2 -13.7947 -28.5554 0 
27 2 -12.667 -28.5163 0 
29 2 -11.5396 -28.477 0 
31 2 -10.4126 -28.4376 0 
33 2 -9.28592 -28.3982 0 
35 2 -8.15967 -28.3589 0 
37 2 -7.03386 -28.3198 0 
39 2 -5.90848 -28.281 0 
2 2 -26.7941 -28.0086 0 
4 2 -25.6649 -27.9736 0 
6 2 -24.5357 -27.9381 0 
8 2 -23.4065 -27.902 0 
10 2 -22.2773 -27.8656 0 
12 2 -21.1481 -27.8286 0 
14 2 -20.019 -27.7912 0 
16 2 -18.89 -27.7533 0 
18 2 -17.7611 -27.715 0 
20 2 -16.6324 -27.6763 0 
22 2 -15.5039 -27.6373 0 
24 2 -14.3755 -27.5979 0 
26 2 -13.2475 -27.5582 0 
28 2 -12.1197 -27.5183 0 
30 2 -10.9923 -27.4783 0 
32 2 -9.86522 -27.4382 0 
34 2 -8.73856 -27.3981 0 
36 2 -7.61233 -27.3581 0 
38 2 -6.48656 -27.3184 0 
40 2 -5.36126 -27.2789 0 
41 2 -4.78357 -28.2426 0 
42 2 -4.23645 -27.24 0 
43 2 -3.65912 -28.2046 0 
44 2 -3.11213 -27.2015 0 
45 2 -2.53513 -28.1673 0 
46 2 -1.98828 -27.1638 0 
47 2 -1.41159 -28.1307 0 
48 2 -0.8649 -27.1269 0 
49 2 -0.288464 -28.095 0 
51 2 0.834263 -28.0602 0 
53 2 1.95663 -28.0264 0 
55 2 3.07869 -27.9937 0 
57 2 4.20048 -27.9622 0 
59 2 5.32207 -27.9319 0 
61 2 6.4435 -27.9029 0 
63 2 7.56483 -27.8752 0 
65 2 8.68613 -27.8488 0 
67 2 9.80743 -27.8237 0 
69 2 10.9288 -27.8 0 
71 2 12.0503 -27.7775 0 
73 2 13.1719 -27.7563 0 
75 2 14.2937 -27.7363 0 
77 2 15.4157 -27.7174 0 
79 2 16.538 -27.6997 0 
81 2 17.6605 -27.683 0 
83 2 18.7832 -27.6673 0 
85 2 19.9063 -27.6526 0 
87 2 21.0296 -27.6388 0 
89 2 22.1532 -27.6258 0 
91 2 23.2771 -27.6136 0 
93 2 24.4012 -27.6022 0 
95 2 25.5256 -27.5914 0 
97 2 26.6503 -27.5812 0 
99 2 27.7752 -27.5717 0 
101 2 -27.378 -27.0533 0 
103 2 -26.2487 -27.0183 0 
102 2 -26.833 -26.0633 0 
105 2 -25.1194 -26.9828 0 
104 2 -25.7037 -26.0278 0 
107 2 -23.9901 -26.9468 0 
106 2 -24.5742 -25.9918 0 
109 2 -22.8607 -26.9102 0 
108 1 -23.4444 -25.955 0 
111 2 -21.7314 -26.8732 0 
113 2 -20.6021 -26.8357 0 
115 2 -19.4729 -26.7977 0 
117 2 -18.3437 -26.7591 0 
119 2 -17.2147 -26.7202 0 
121 2 -16.0858 -26.6808 0 
123 2 -14.9572 -26.641 0 
125 2 -13.8287 -26.6009 0 
127 2 -12.7006 -26.5605 0 
129 2 -11.5727 -26.5198 0 
131 2 -10.4452 -26.479 0 
133 2 -9.31813 -26.4382 0 
135 2 -8.19146 -26.3973 0 
137 2 -7.06526 -26.3566 0 
139 2 -5.93954 -26.3162 0 
141 2 -4.81433 -26.2762 0 
143 2 -3.68963 -26.2366 0 
145 2 -2.56545 -26.1977 0 
147 2 -1.44177 -26.1596 0 
50 2 0.258046 -27.0909 0 
149 2 -0.318563 -26.1224 0 
52 2 1.38059 -27.056 0 
151 2 0.804196 -26.0862 0 
54 2 2.50279 -27.0222 0 
153 2 1.92656 -26.0512 0 
56 2 3.62468 -26.9896 0 
155 2 3.04857 -26.0174 0 
58 2 4.74633 -26.9582 0 
157 2 4.1703 -25.9849 0 
60 2 5.86779 -26.9282 0 
159 2 5.2918 -25.9538 0 
62 2 6.98913 -26.8996 0 
64 2 8.11041 -26.8723 0 
66 2 9.23169 -26.8465 0 
68 2 10.353 -26.822 0 
70 2 11.4745 -26.7989 0 
72 2 12.596 -26.7771 0 
74 2 13.7178 -26.7566 0 
76 2 14.8398 -26.7373 0 
78 2 15.962 -26.7192 0 
80 2 17.0845 -26.7023 0 
82 2 18.2073 -26.6863 0 
84 2 19.3304 -26.6714 0 
86 2 20.4538 -26.6575 0 
88 2 21.5774 -26.6444 0 
90 2 22.7014 -26.6321 0 
92 2 23.8256 -26.6206 0 
94 2 24.9501 -26.6098 0 
96 2 26.0749 -26.5996 0 
98 2 27.2 -26.5901 0 
100 2 28.3253 -26.5811 0 
201 2 -27.4179 -25.1085 0 
203 2 -26.2885 -25.0731 0 
205 2 -25.159 -25.0372 0 
207 2 -24.0295 -25.0007 0 
209 1 -22.8988 -24.9632 0 
110 1 -22.3143 -25.9177 0 
211 1 -21.7688 -24.9242 0 
112 1 -21.1848 -25.8794 0 
213 1 -20.6388 -24.8858 0 
114 1 -20.0553 -25.8414 0 
215 1 -19.5089 -24.8467 0 
116 1 -18.9258 -25.8023 0 
217 1 -18.3797 -24.8063 0 
118 1 -17.7968 -25.7628 0 
120 1 -16.6678 -25.7234 0 
122 1 -15.5389 -25.683 0 
124 1 -14.4105 -25.6422 0 
126 1 -13.2823 -25.6015 0 
128 1 -12.1544 -25.5604 0 
130 1 -11.027 -25.519 0 
132 1 -9.89982 -25.4777 0 
134 1 -8.77309 -25.4359 0 
136 1 -7.6466 -25.3945 0 
138 1 -6.52086 -25.3531 0 
140 1 -5.39603 -25.3119 0 
142 1 -4.27112 -25.272 0 
144 1 -3.14659 -25.2312 0 
146 1 -2.02304 -25.1922 0 
148 1 -0.899669 -25.1542 0 
150 1 0.22332 -25.1168 0 
152 1 1.34595 -25.0808 0 
154 1 2.46817 -25.046 0 
156 1 3.59006 -25.0127 0 
158 1 4.71194 -24.9808 0 
160 1 5.8337 -24.9504 0 
161 2 6.41316 -25.9242 0 
162 1 6.95534 -24.921 0 
163 2 7.53443 -25.896 0 
164 1 8.07677 -24.8935 0 
165 2 8.65568 -25.8693 0 
167 2 9.77697 -25.844 0 
166 1 9.19841 -24.8677 0 
169 2 10.8984 -25.8202 0 
168 1 10.3201 -24.8435 0 
171 2 12.0199 -25.7978 0 
170 1 11.442 -24.8206 0 
173 2 13.1416 -25.7768 0 
175 2 14.2636 -25.7571 0 
177 2 15.3858 -25.7386 0 
179 2 16.5083 -25.7213 0 
181 2 17.6311 -25.7052 0 
183 2 18.7543 -25.6901 0 
185 2 19.8777 -25.6759 0 
187 2 21.0014 -25.6627 0 
189 2 22.1254 -25.6504 0 
191 2 23.2498 -25.6388 0 
193 2 24.3744 -25.628 0 
195 2 25.4993 -25.6179 0 
197 2 26.6245 -25.6084 0 
199 2 27.75 -25.5994 0 
202 2 -26.8739 -24.1187 0 
204 2 -25.7444 -24.0828 0 
206 2 -24.6148 -24.0464 0 
208 1 -23.4843 -24.0091 0 
210 1 -22.354 -23.9699 0 
212 1 -21.2236 -23.9309 0 
214 1 -20.0934 -23.8917 0 
216 1 -18.964 -23.8507 0 
219 1 -17.2506 -24.7666 0 
218 1 -17.8343 -23.8104 0 
221 1 -16.1217 -24.7261 0 
220 1 -16.705 -23.7695 0 
222 1 -15.5763 -23.7279 0 
223 1 -14.993 -24.6844 0 
224 1 -14.4472 -23.6861 0 
225 1 -13.8645 -24.6435 0 
227 1 -12.7366 -24.6015 0 
229 1 -11.6091 -24.5594 0 
231 1 -10.4816 -24.5174 0 
233 1 -9.35478 -24.4748 0 
235 1 -8.22849 -24.4329 0 
237 1 -7.10263 -24.3907 0 
239 1 -5.97741 -24.3483 0 
241 1 -4.8525 -24.3073 0 
243 1 -3.72814 -24.2663 0 
245 1 -2.60402 -24.2253 0 
247 1 -1.48046 -24.1866 0 
249 1 -0.35728 -24.1479 0 
251 1 0.765418 -24.1107 0 
253 1 1.88777 -24.075 0 
255 1 3.01008 -24.0406 0 
257 1 4.13229 -24.0079 0 
259 1 5.25429 -23.9765 0 
261 1 6.37605 -23.9466 0 
263 1 7.4979 -23.918 0 
265 1 8.61987 -23.8915 0 
267 1 9.74194 -23.8666 0 
269 1 10.8639 -23.8432 0 
271 1 11.9862 -23.8208 0 
172 1 12.564 -24.7987 0 
273 1 13.1089 -23.8 0 
174 1 13.6863 -24.7785 0 
275 1 14.2317 -23.7811 0 
176 1 14.8091 -24.7598 0 
277 1 15.3549 -23.7629 0 
178 1 15.9321 -24.7421 0 
279 1 16.4782 -23.746 0 
180 1 17.0552 -24.7257 0 
281 1 17.602 -23.7307 0 
182 1 18.1785 -24.7104 0 
283 1 18.7259 -23.7161 0 
184 1 19.3021 -24.6958 0 
285 1 19.85 -23.7022 0 
186 1 20.426 -24.6822 0 
287 1 20.9743 -23.6891 0 
188 1 21.5502 -24.6697 0 
289 1 22.0987 -23.6769 0 
190 1 22.6746 -24.6577 0 
291 1 23.2236 -23.6655 0 
192 1 23.7992 -24.6468 0 
293 1 24.3482 -23.6546 0 
194 1 24.9239 -24.6362 0 
295 2 25.4729 -23.6443 0 
196 2 26.0488 -24.6264 0 
198 2 27.1745 -24.6176 0 
200 2 28.3003 -24.6093 0 
301 2 -27.4598 -23.1644 0 
303 2 -26.3303 -23.1287 0 
305 2 -25.2007 -23.0924 0 
307 2 -24.071 -23.0555 0 
309 1 -22.9401 -23.0163 0 
311 1 -21.8092 -22.9767 0 
313 1 -20.6787 -22.9371 0 
315 1 -19.5489 -22.896 0 
317 1 -18.419 -22.8549 0 
319 1 -17.2896 -22.8136 0 
321 1 -16.1602 -22.7718 0 
323 1 -15.0309 -22.7296 0 
226 1 -13.3191 -23.6435 0 
325 1 -13.9023 -22.6864 0 
327 1 -12.774 -22.6426 0 
228 1 -12.1913 -23.6004 0 
329 1 -11.646 -22.599 0 
230 1 -11.0637 -23.5578 0 
331 1 -10.519 -22.5553 0 
232 1 -9.93666 -23.5147 0 
333 1 -9.39235 -22.5114 0 
234 1 -8.81006 -23.4714 0 
236 1 -7.68455 -23.4286 0 
238 1 -6.55927 -23.3857 0 
240 1 -5.43395 -23.3432 0 
242 1 -4.30948 -23.3013 0 
244 1 -3.1857 -23.2597 0 
246 1 -2.06182 -23.2193 0 
248 1 -0.93886 -23.1799 0 
250 1 0.184153 -23.1411 0 
252 1 1.30671 -23.1043 0 
254 1 2.42917 -23.0692 0 
256 1 3.55176 -23.0353 0 
258 1 4.67411 -23.0029 0 
260 1 5.79644 -22.9722 0 
262 1 6.9186 -22.9432 0 
264 1 8.04099 -22.916 0 
266 1 9.16364 -22.89 0 
268 1 10.286 -22.8656 0 
270 1 11.4085 -22.8429 0 
272 1 12.5312 -22.8217 0 
274 1 13.6541 -22.802 0 
276 1 14.7776 -22.7838 0 
278 1 15.9014 -22.7665 0 
280 1 17.0255 -22.7506 0 
282 1 18.1495 -22.7358 0 
284 1 19.2736 -22.722 0 
286 1 20.398 -22.7089 0 
288 1 21.5227 -22.6959 0 
290 1 22.6475 -22.6845 0 
292 1 23.7726 -22.6731 0 
294 1 24.8975 -22.6625 0 
297 2 26.5987 -23.6355 0 
296 2 26.0228 -22.6533 0 
299 2 27.7248 -23.6273 0 
298 2 27.149 -22.6452 0 
300 2 28.2755 -22.6376 0 
302 2 -26.9167 -22.1747 0 
304 2 -25.7871 -22.1385 0 
306 2 -24.6574 -22.1018 0 
308 1 -23.5269 -22.0633 0 
310 1 -22.3961 -22.0233 0 
312 1 -21.2654 -21.9833 0 
314 1 -20.1352 -21.9423 0 
316 1 -19.005 -21.9007 0 
318 1 -17.875 -21.8586 0 
320 1 -16.7451 -21.8164 0 
322 1 -15.6152 -21.7739 0 
324 1 -14.4862 -21.73 0 
326 1 -13.3578 -21.6857 0 
328 1 -12.2294 -21.6413 0 
330 1 -11.1018 -21.5966 0 
332 1 -9.97501 -21.552 0 
334 1 -8.84862 -21.5069 0 
335 1 -8.26604 -22.4671 0 
336 1 -7.72256 -21.4618 0 
337 1 -7.14048 -22.4233 0 
338 1 -6.59717 -21.4172 0 
339 1 -6.01533 -22.3798 0 
340 1 -5.47246 -21.3725 0 
341 1 -4.89079 -22.3365 0 
343 1 -3.76674 -22.2941 0 
345 1 -2.64282 -22.2528 0 
347 1 -1.51937 -22.2118 0 
349 1 -0.396391 -22.1723 0 
351 1 0.726477 -22.1339 0 
353 1 1.84916 -22.0978 0 
355 1 2.97169 -22.0632 0 
357 1 4.09426 -22.0294 0 
359 1 5.21666 -21.998 0 
361 1 6.3393 -21.9683 0 
363 1 7.46176 -21.9403 0 
365 1 8.58418 -21.914 0 
367 1 9.70705 -21.8886 0 
369 1 10.8299 -21.865 0 
371 1 11.9531 -21.8432 0 
373 1 13.0764 -21.8229 0 
375 1 14.1999 -21.8044 0 
377 1 15.3236 -21.7871 0 
379 1 16.4478 -21.7708 0 
381 1 17.5723 -21.7552 0 
383 1 18.6968 -21.741 0 
385 1 19.8213 -21.728 0 
387 1 20.9459 -21.7152 0 
389 1 22.071 -21.7031 0 
391 1 23.1963 -21.6922 0 
393 1 24.3216 -21.6811 0 
395 2 25.4466 -21.6709 0 
397 2 26.573 -21.6629 0 
399 2 27.6998 -21.6554 0 
401 2 -27.5037 -21.2208 0 
403 2 -26.3741 -21.1849 0 
402 2 -26.9617 -20.2313 0 
405 2 -25.2445 -21.1483 0 
404 2 -25.8321 -20.1949 0 
407 2 -24.1147 -21.111 0 
409 1 -22.9834 -21.0708 0 
411 1 -21.8524 -21.0303 0 
413 1 -20.7217 -20.9891 0 
415 1 -19.5912 -20.9476 0 
417 1 -18.4609 -20.905 0 
419 1 -17.3308 -20.8618 0 
421 1 -16.2005 -20.8191 0 
423 1 -15.0713 -20.7747 0 
425 1 -13.9425 -20.7296 0 
427 1 -12.8141 -20.6846 0 
429 1 -11.6862 -20.6388 0 
431 1 -10.5586 -20.5932 0 
433 1 -9.43202 -20.5474 0 
435 1 -8.30567 -20.5014 0 
437 1 -7.17973 -20.4555 0 
439 1 -6.05474 -20.4099 0 
342 1 -4.34812 -21.3291 0 
441 1 -4.9301 -20.365 0 
344 1 -3.22425 -21.2864 0 
443 1 -3.80583 -20.3207 0 
346 1 -2.10103 -21.2446 0 
445 1 -2.68216 -20.2775 0 
348 1 -0.977761 -21.2037 0 
447 1 -1.55898 -20.2357 0 
350 1 0.145516 -21.1643 0 
352 1 1.26844 -21.1268 0 
354 1 2.39104 -21.0911 0 
356 1 3.51366 -21.0569 0 
358 1 4.63651 -21.0238 0 
360 1 5.75924 -20.9936 0 
362 1 6.88226 -20.9646 0 
364 1 8.00523 -20.9374 0 
366 1 9.12807 -20.9119 0 
368 1 10.2511 -20.8871 0 
370 1 11.3745 -20.8649 0 
372 1 12.4984 -20.8441 0 
374 1 13.6224 -20.825 0 
376 1 14.7463 -20.8074 0 
378 1 15.8703 -20.7908 0 
380 1 16.9947 -20.7752 0 
382 1 18.1195 -20.7604 0 
384 1 19.2443 -20.7467 0 
386 1 20.3693 -20.7342 0 
388 1 21.4947 -20.7222 0 
390 1 22.6203 -20.7109 0 
392 1 23.7457 -20.6999 0 
394 1 24.8712 -20.6893 0 
396 2 25.9969 -20.6804 0 
398 2 27.1238 -20.673 0 
400 2 28.251 -20.6661 0 
501 2 -27.5497 -19.2779 0 
503 2 -26.4202 -19.2417 0 
505 2 -25.2906 -19.2049 0 
406 2 -24.7023 -20.1579 0 
507 2 -24.1608 -19.1673 0 
408 1 -23.5713 -20.1188 0 
509 1 -23.029 -19.1265 0 
410 1 -22.4403 -20.0782 0 
511 1 -21.898 -19.0848 0 
412 1 -21.3094 -20.0366 0 
513 1 -20.7668 -19.0428 0 
414 1 -20.1781 -19.9948 0 
416 1 -19.0476 -19.952 0 
418 1 -17.9173 -19.9083 0 
420 1 -16.7868 -19.8649 0 
422 1 -15.6575 -19.8202 0 
424 1 -14.5283 -19.7748 0 
426 1 -13.3993 -19.7287 0 
428 1 -12.2711 -19.6821 0 
430 1 -11.143 -19.6359 0 
432 1 -10.0154 -19.5888 0 
434 1 -8.88899 -19.542 0 
436 1 -7.7627 -19.4951 0 
438 1 -6.63706 -19.4481 0 
440 1 -5.51218 -19.4018 0 
442 1 -4.38791 -19.3563 0 
444 1 -3.26375 -19.3116 0 
446 1 -2.1398 -19.2682 0 
448 1 -1.01639 -19.2264 0 
449 1 -0.435695 -20.1953 0 
450 1 0.106681 -19.1861 0 
451 1 0.68747 -20.1562 0 
452 1 1.22957 -19.1475 0 
453 1 1.81026 -20.1192 0 
454 1 2.35235 -19.1111 0 
455 1 2.93299 -20.084 0 
456 1 3.47517 -19.0765 0 
457 1 4.05574 -20.0504 0 
459 1 5.17893 -20.0185 0 
461 1 6.30201 -19.9894 0 
463 1 7.42521 -19.961 0 
465 1 8.54846 -19.9346 0 
467 1 9.67166 -19.9097 0 
469 1 10.7953 -19.8863 0 
471 1 11.9194 -19.8652 0 
473 1 13.0437 -19.8455 0 
475 1 14.1681 -19.8275 0 
477 1 15.2927 -19.8106 0 
479 1 16.4172 -19.7947 0 
481 1 17.542 -19.78 0 
483 1 18.667 -19.7659 0 
485 1 19.7922 -19.7531 0 
487 1 20.9177 -19.7412 0 
489 1 22.0435 -19.7296 0 
491 1 23.1692 -19.7185 0 
493 1 24.2948 -19.708 0 
495 2 25.4205 -19.6978 0 
497 2 26.5477 -19.6905 0 
499 2 27.6751 -19.6838 0 
502 2 -27.0088 -18.2886 0 
504 2 -25.8793 -18.252 0 
506 2 -24.7497 -18.2147 0 
508 1 -23.6184 -18.1752 0 
510 1 -22.4873 -18.1332 0 
512 1 -21.3561 -18.0913 0 
514 1 -20.2249 -18.0481 0 
515 1 -19.6359 -18.9995 0 
516 1 -19.0937 -18.0038 0 
517 1 -18.5053 -18.9558 0 
518 1 -17.9627 -17.9595 0 
519 1 -17.3744 -18.9117 0 
520 1 -16.8322 -17.9138 0 
521 1 -16.2441 -18.8663 0 
523 1 -15.1144 -18.8208 0 
525 1 -13.985 -18.7743 0 
527 1 -12.8563 -18.7265 0 
529 1 -11.7279 -18.6794 0 
531 1 -10.6002 -18.6317 0 
533 1 -9.47299 -18.5834 0 
535 1 -8.34644 -18.5359 0 
537 1 -7.22062 -18.4876 0 
539 1 -6.09526 -18.44 0 
541 1 -4.97019 -18.3927 0 
543 1 -3.84591 -18.3466 0 
545 1 -2.72204 -18.302 0 
547 1 -1.59858 -18.2583 0 
549 1 -0.475299 -18.2165 0 
551 1 0.6478 -18.1764 0 
553 1 1.77094 -18.1384 0 
555 1 2.89389 -18.1029 0 
557 1 4.01693 -18.069 0 
458 1 4.5982 -19.0438 0 
559 1 5.1404 -18.0378 0 
460 1 5.72164 -19.0134 0 
561 1 6.26397 -18.0081 0 
462 1 6.84453 -18.9847 0 
563 1 7.38742 -17.9806 0 
464 1 7.96791 -18.9577 0 
565 1 8.51122 -17.9545 0 
466 1 9.0914 -18.9322 0 
567 1 9.63535 -17.93 0 
468 1 10.2151 -18.9081 0 
569 1 10.76 -17.9074 0 
470 1 11.3396 -18.8862 0 
472 1 12.4642 -18.8661 0 
474 1 13.5892 -18.8475 0 
476 1 14.7142 -18.8305 0 
478 1 15.8393 -18.814 0 
480 1 16.9646 -18.799 0 
482 1 18.09 -18.785 0 
484 1 19.2153 -18.7719 0 
486 1 20.3409 -18.7597 0 
488 1 21.4665 -18.7484 0 
490 1 22.5925 -18.7373 0 
492 1 23.7187 -18.7265 0 
494 1 24.8448 -18.7163 0 
496 2 25.9714 -18.7078 0 
498 2 27.0991 -18.7012 0 
500 2 28.2271 -18.6951 0 
601 2 -27.5979 -17.3354 0 
603 2 -26.4686 -17.2992 0 
605 2 -25.3391 -17.2621 0 
607 2 -24.2094 -17.2244 0 
609 1 -23.0777 -17.1824 0 
611 1 -21.9459 -17.14 0 
613 1 -20.8149 -17.097 0 
615 1 -19.6838 -17.0531 0 
617 1 -18.5524 -17.0081 0 
619 1 -17.4216 -16.9623 0 
522 1 -15.7018 -17.8675 0 
621 1 -16.2909 -16.9156 0 
524 1 -14.5721 -17.8206 0 
623 1 -15.1602 -16.8679 0 
526 1 -13.4429 -17.7725 0 
625 1 -14.0304 -16.8192 0 
528 1 -12.3137 -17.7242 0 
627 1 -12.9008 -16.7704 0 
530 1 -11.1853 -17.6755 0 
532 1 -10.0578 -17.6263 0 
534 1 -8.93056 -17.5775 0 
536 1 -7.80426 -17.5281 0 
538 1 -6.67847 -17.479 0 
540 1 -5.55341 -17.4304 0 
542 1 -4.42878 -17.3825 0 
544 1 -3.30435 -17.3365 0 
546 1 -2.18053 -17.291 0 
548 1 -1.05677 -17.2473 0 
550 1 0.066414 -17.2058 0 
552 1 1.18936 -17.1662 0 
554 1 2.31221 -17.1292 0 
556 1 3.43528 -17.0947 0 
558 1 4.55896 -17.0621 0 
560 1 5.68282 -17.0317 0 
562 1 6.80662 -17.0031 0 
564 1 7.93066 -16.9767 0 
566 1 9.05496 -16.9517 0 
568 1 10.1797 -16.9285 0 
571 1 11.8852 -17.8865 0 
570 1 11.3051 -16.9074 0 
573 1 13.0103 -17.8678 0 
572 1 12.4309 -16.8878 0 
575 1 14.1357 -17.8503 0 
574 1 13.5564 -16.87 0 
577 1 15.261 -17.8338 0 
576 1 14.6819 -16.8532 0 
579 1 16.3866 -17.8181 0 
578 1 15.8078 -16.8377 0 
581 1 17.5122 -17.8038 0 
580 1 16.9338 -16.8228 0 
583 1 18.6379 -17.7906 0 
582 1 18.06 -16.8093 0 
585 1 19.7639 -17.7784 0 
584 1 19.1866 -16.7967 0 
587 1 20.8901 -17.7669 0 
586 1 20.3131 -16.7854 0 
589 1 22.0161 -17.7557 0 
588 1 21.4395 -16.7739 0 
591 1 23.1423 -17.7451 0 
590 1 22.5659 -16.7631 0 
593 1 24.2684 -17.7346 0 
592 1 23.6922 -16.753 0 
595 2 25.3948 -17.725 0 
594 1 24.8191 -16.7436 0 
596 2 25.9465 -16.7357 0 
597 2 26.5229 -17.7186 0 
598 2 27.0751 -16.7299 0 
599 2 27.6512 -17.7126 0 
600 2 28.2039 -16.7246 0 
602 2 -27.0583 -16.3463 0 
604 2 -25.929 -16.3096 0 
606 2 -24.7995 -16.2721 0 
608 1 -23.6686 -16.2319 0 
610 1 -22.5371 -16.1898 0 
612 1 -21.4054 -16.1462 0 
614 1 -20.2741 -16.1025 0 
616 1 -19.1428 -16.0578 0 
618 1 -18.0116 -16.0117 0 
620 1 -16.8806 -15.9645 0 
622 1 -15.7498 -15.9168 0 
624 1 -14.6192 -15.8674 0 
626 1 -13.4889 -15.8176 0 
628 1 -12.3593 -15.7671 0 
629 1 -11.7718 -16.7207 0 
630 1 -11.2304 -15.7158 0 
631 1 -10.6432 -16.6703 0 
632 1 -10.1016 -15.6645 0 
633 1 -9.51539 -16.6201 0 
634 1 -8.9738 -15.6125 0 
635 1 -8.38857 -16.5696 0 
637 1 -7.26255 -16.5193 0 
639 1 -6.13704 -16.469 0 
641 1 -5.01199 -16.4194 0 
643 1 -3.88736 -16.3717 0 
645 1 -2.76351 -16.3246 0 
647 1 -1.63986 -16.2793 0 
649 1 -0.516193 -16.2357 0 
651 1 0.606927 -16.1945 0 
653 1 1.73022 -16.1557 0 
655 1 2.85357 -16.12 0 
657 1 3.97704 -16.0866 0 
659 1 5.10116 -16.0553 0 
661 1 6.22541 -16.0258 0 
663 1 7.34987 -15.9989 0 
665 1 8.47435 -15.9734 0 
667 1 9.59938 -15.9498 0 
669 1 10.7248 -15.9278 0 
671 1 11.8505 -15.9079 0 
673 1 12.9765 -15.8895 0 
675 1 14.1029 -15.8723 0 
677 1 15.2293 -15.8568 0 
679 1 16.3557 -15.8419 0 
681 1 17.482 -15.828 0 
683 1 18.6089 -15.8152 0 
685 1 19.736 -15.8033 0 
687 1 20.8625 -15.7921 0 
689 1 21.9892 -15.7812 0 
691 1 23.116 -15.7709 0 
693 1 24.243 -15.7617 0 
695 2 25.3699 -15.7527 0 
697 2 26.4989 -15.7471 0 
699 2 27.6281 -15.742 0 
701 2 -27.6483 -15.3934 0 
703 2 -26.5193 -15.357 0 
705 2 -25.3901 -15.3199 0 
707 2 -24.2607 -15.282 0 
709 1 -23.1291 -15.2397 0 
711 1 -21.9977 -15.1967 0 
713 1 -20.8659 -15.1524 0 
715 1 -19.7344 -15.1077 0 
717 1 -18.6029 -15.0618 0 
719 1 -17.4716 -15.0146 0 
721 1 -16.3401 -14.9664 0 
723 1 -15.2091 -14.917 0 
725 1 -14.0783 -14.8664 0 
727 1 -12.948 -14.8149 0 
729 1 -11.8181 -14.7627 0 
731 1 -10.6886 -14.7104 0 
733 1 -9.56023 -14.6572 0 
636 1 -7.84717 -15.5604 0 
735 1 -8.43277 -14.6033 0 
638 1 -6.72124 -15.5089 0 
737 1 -7.30607 -14.5501 0 
640 1 -5.59563 -15.4579 0 
739 1 -6.18009 -14.4975 0 
642 1 -4.47074 -15.4077 0 
644 1 -3.34677 -15.359 0 
646 1 -2.22304 -15.3121 0 
648 1 -1.09928 -15.2668 0 
650 1 0.0242162 -15.2231 0 
652 1 1.14752 -15.1829 0 
654 1 2.27112 -15.1453 0 
656 1 3.39476 -15.1106 0 
658 1 4.51884 -15.0789 0 
660 1 5.64338 -15.0487 0 
662 1 6.76823 -15.0209 0 
664 1 7.89329 -14.9951 0 
666 1 9.01867 -14.9709 0 
668 1 10.1442 -14.9483 0 
670 1 11.27 -14.9277 0 
672 1 12.3962 -14.9088 0 
674 1 13.5227 -14.8918 0 
676 1 14.6497 -14.8755 0 
678 1 15.7765 -14.8607 0 
680 1 16.9034 -14.8464 0 
682 1 18.0303 -14.8338 0 
684 1 19.1578 -14.8217 0 
686 1 20.2851 -14.81 0 
688 1 21.4124 -14.7994 0 
690 1 22.5397 -14.789 0 
692 1 23.667 -14.7797 0 
694 1 24.7944 -14.7708 0 
696 2 25.9226 -14.7642 0 
698 2 27.0521 -14.7592 0 
700 2 28.1818 -14.7547 0 
702 2 -27.11 -14.4044 0 
801 2 -27.7009 -13.4516 0 
704 2 -25.9811 -14.3676 0 
803 2 -26.5724 -13.4152 0 
706 2 -24.852 -14.3301 0 
805 2 -25.4437 -13.3781 0 
708 1 -23.7212 -14.2898 0 
807 2 -24.3146 -13.3401 0 
710 1 -22.5901 -14.247 0 
809 1 -23.1835 -13.2975 0 
712 1 -21.4588 -14.2032 0 
714 1 -20.327 -14.1581 0 
716 1 -19.1954 -14.1124 0 
718 1 -18.0638 -14.0654 0 
720 1 -16.932 -14.0173 0 
722 1 -15.8004 -13.9675 0 
724 1 -14.6691 -13.9165 0 
726 1 -13.5381 -13.8644 0 
728 1 -12.4073 -13.8115 0 
730 1 -11.2771 -13.7581 0 
732 1 -10.1479 -13.7035 0 
734 1 -9.0198 -13.6483 0 
736 1 -7.89238 -13.5931 0 
738 1 -6.76597 -13.5385 0 
740 1 -5.64027 -13.4842 0 
741 1 -5.05492 -14.4452 0 
742 1 -4.51501 -13.431 0 
743 1 -3.93021 -14.3944 0 
744 1 -3.3904 -13.3797 0 
745 1 -2.80614 -14.3454 0 
746 1 -2.26678 -13.3305 0 
747 1 -1.68269 -14.2984 0 
749 1 -0.559443 -14.2529 0 
751 1 0.5642 -14.2104 0 
753 1 1.68785 -14.1714 0 
755 1 2.81187 -14.1352 0 
757 1 3.93633 -14.1022 0 
759 1 5.06083 -14.0715 0 
761 1 6.18588 -14.0428 0 
763 1 7.31133 -14.0164 0 
765 1 8.43704 -13.9917 0 
767 1 9.56307 -13.9685 0 
769 1 10.6894 -13.9475 0 
771 1 11.8157 -13.9283 0 
773 1 12.9425 -13.9107 0 
775 1 14.0694 -13.8945 0 
777 1 15.1967 -13.8792 0 
779 1 16.324 -13.8651 0 
781 1 17.4518 -13.8518 0 
783 1 18.5795 -13.8402 0 
785 1 19.7072 -13.8284 0 
787 1 20.8351 -13.8176 0 
789 1 21.963 -13.8074 0 
791 1 23.0907 -13.7978 0 
793 1 24.2183 -13.7892 0 
795 2 25.3462 -13.7811 0 
797 2 26.4761 -13.7764 0 
799 2 27.6062 -13.772 0 
802 2 -27.164 -12.4626 0 
804 2 -26.0357 -12.4259 0 
806 2 -24.9071 -12.3884 0 
808 1 -23.777 -12.3481 0 
810 1 -22.6462 -12.3049 0 
811 1 -22.0523 -13.254 0 
812 1 -21.515 -12.2609 0 
813 1 -20.9207 -13.2094 0 
814 1 -20.3833 -12.2152 0 
815 1 -19.789 -13.1635 0 
816 1 -19.2514 -12.1689 0 
817 1 -18.6571 -13.1168 0 
818 1 -18.1193 -12.1208 0 
819 1 -17.5251 -13.0687 0 
821 1 -16.3931 -13.0191 0 
823 1 -15.2613 -12.9678 0 
825 1 -14.1299 -12.9152 0 
827 1 -12.9988 -12.862 0 
829 1 -11.8677 -12.8072 0 
831 1 -10.7378 -12.7516 0 
833 1 -9.6084 -12.6952 0 
835 1 -8.47998 -12.6383 0 
837 1 -7.35245 -12.5811 0 
839 1 -6.22611 -12.5248 0 
841 1 -5.10071 -12.4693 0 
843 1 -3.97586 -12.4158 0 
845 1 -2.85183 -12.3633 0 
748 1 -1.14372 -13.2831 0 
847 1 -1.72854 -12.3137 0 
849 1 -0.604742 -12.2675 0 
750 1 -0.0201386 -13.2388 0 
851 1 0.519156 -12.225 0 
752 1 1.10413 -13.198 0 
853 1 1.6433 -12.1855 0 
754 1 2.22856 -13.16 0 
756 1 3.3529 -13.1255 0 
758 1 4.47778 -13.094 0 
760 1 5.60297 -13.0644 0 
762 1 6.72863 -13.0374 0 
764 1 7.85465 -13.0122 0 
766 1 8.98098 -12.9887 0 
768 1 10.1079 -12.9674 0 
770 1 11.2346 -12.9476 0 
772 1 12.3617 -12.9297 0 
774 1 13.4893 -12.9131 0 
776 1 14.617 -12.8978 0 
778 1 15.7448 -12.8834 0 
780 1 16.8726 -12.8704 0 
782 1 18.0008 -12.858 0 
784 1 19.129 -12.8466 0 
786 1 20.2572 -12.8356 0 
788 1 21.3857 -12.8257 0 
790 1 22.514 -12.8161 0 
792 1 23.6422 -12.8073 0 
794 1 24.7708 -12.7995 0 
796 2 25.9 -12.7934 0 
798 2 27.0306 -12.7893 0 
800 2 28.1612 -12.7854 0 
901 2 -27.7557 -11.5099 0 
903 2 -26.6279 -11.4735 0 
905 2 -25.4997 -11.4364 0 
907 2 -24.3713 -11.3985 0 
909 1 -23.2408 -11.356 0 
911 1 -22.1099 -11.3124 0 
913 1 -20.9787 -11.2674 0 
915 1 -19.8468 -11.2212 0 
917 1 -18.7149 -11.1739 0 
820 1 -16.9875 -12.0716 0 
919 1 -17.5829 -11.1245 0 
822 1 -15.8555 -12.0203 0 
921 1 -16.4507 -11.0738 0 
824 1 -14.7235 -11.9675 0 
923 1 -15.3188 -11.0211 0 
826 1 -13.5915 -11.9135 0 
828 1 -12.46 -11.8585 0 
830 1 -11.3289 -11.8014 0 
832 1 -10.1984 -11.744 0 
834 1 -9.06912 -11.6853 0 
836 1 -7.94103 -11.6264 0 
838 1 -6.81346 -11.5675 0 
840 1 -5.68721 -11.5093 0 
842 1 -4.56207 -11.4529 0 
844 1 -3.43811 -11.398 0 
846 1 -2.31425 -11.3455 0 
848 1 -1.19053 -11.297 0 
850 1 -0.0665853 -11.252 0 
852 1 1.05768 -11.2106 0 
855 1 2.76817 -12.1489 0 
854 1 2.18261 -11.173 0 
857 1 3.89318 -12.1163 0 
856 1 3.30831 -11.1386 0 
859 1 5.01836 -12.0861 0 
858 1 4.43395 -11.1073 0 
861 1 6.1444 -12.0584 0 
860 1 5.56016 -11.079 0 
863 1 7.27104 -12.0327 0 
862 1 6.6868 -11.0531 0 
865 1 8.3979 -12.0089 0 
864 1 7.81415 -11.0289 0 
867 1 9.52528 -11.9873 0 
869 1 10.6529 -11.9668 0 
871 1 11.7805 -11.9485 0 
873 1 12.9086 -11.9316 0 
875 1 14.0368 -11.9162 0 
877 1 15.165 -11.9016 0 
879 1 16.2935 -11.8883 0 
881 1 17.4219 -11.8759 0 
883 1 18.5506 -11.8645 0 
885 1 19.6793 -11.8536 0 
887 1 20.8082 -11.8436 0 
889 1 21.937 -11.834 0 
891 1 23.0657 -11.8255 0 
893 1 24.1949 -11.8175 0 
895 2 25.3239 -11.8103 0 
897 2 26.4549 -11.8064 0 
899 2 27.586 -11.8028 0 
902 2 -27.2202 -10.5209 0 
904 2 -26.0925 -10.4842 0 
906 2 -24.9646 -10.4468 0 
908 1 -23.8354 -10.4069 0 
910 1 -22.7051 -10.3638 0 
912 1 -21.5747 -10.3195 0 
914 1 -20.4435 -10.274 0 
916 1 -19.3118 -10.227 0 
918 1 -18.1801 -10.1784 0 
920 1 -17.0477 -10.1281 0 
922 1 -15.9151 -10.0754 0 
924 1 -14.7827 -10.0216 0 
925 1 -14.1864 -10.9671 0 
926 1 -13.6501 -9.9659 0 
927 1 -13.054 -10.9112 0 
928 1 -12.5175 -9.90761 0 
929 1 -11.9225 -10.8536 0 
930 1 -11.3853 -9.84814 0 
931 1 -10.7911 -10.7951 0 
933 1 -9.66054 -10.7349 0 
935 1 -8.53084 -10.6737 0 
937 1 -7.40227 -10.6129 0 
939 1 -6.27508 -10.5516 0 
941 1 -5.14933 -10.4917 0 
943 1 -4.02489 -10.4337 0 
945 1 -2.90104 -10.3787 0 
947 1 -1.77707 -10.327 0 
949 1 -0.652936 -10.2793 0 
951 1 0.471213 -10.236 0 
953 1 1.59613 -10.1966 0 
955 1 2.72169 -10.1612 0 
957 1 3.84783 -10.1287 0 
959 1 4.97464 -10.0996 0 
961 1 6.102 -10.0729 0 
963 1 7.23005 -10.0484 0 
965 1 8.35836 -10.0258 0 
866 1 8.94203 -11.0067 0 
967 1 9.4869 -10.0051 0 
868 1 10.07 -10.9864 0 
969 1 10.6158 -9.98629 0 
870 1 11.1983 -10.9671 0 
971 1 11.7452 -9.96856 0 
872 1 12.3269 -10.9503 0 
973 1 12.8745 -9.95261 0 
874 1 13.456 -10.9343 0 
975 1 14.0041 -9.93762 0 
876 1 14.585 -10.9197 0 
977 1 15.1338 -9.92411 0 
878 1 15.714 -10.9064 0 
979 1 16.2633 -9.91162 0 
880 1 16.843 -10.8938 0 
981 1 17.393 -9.8997 0 
882 1 17.9722 -10.8821 0 
983 1 18.5229 -9.88911 0 
884 1 19.1014 -10.8714 0 
985 1 19.6531 -9.87927 0 
886 1 20.2308 -10.8614 0 
987 1 20.7831 -9.86988 0 
888 1 21.3601 -10.852 0 
890 1 22.4894 -10.8434 0 
989 1 21.9133 -9.86157 0 
892 1 23.6189 -10.8358 0 
991 1 23.0435 -9.85403 0 
894 1 24.749 -10.8286 0 
993 1 24.1736 -9.84701 0 
896 2 25.8793 -10.8234 0 
995 2 25.3037 -9.84035 0 
898 2 27.0108 -10.8201 0 
997 2 26.4357 -9.83726 0 
900 2 28.1423 -10.817 0 
999 2 27.5677 -9.8344 0 
1001 2 -27.8125 -9.56805 0 
1003 2 -26.6854 -9.5318 0 
1005 2 -25.5581 -9.49477 0 
1007 2 -24.4305 -9.45693 0 
1009 1 -23.3009 -9.41524 0 
1011 1 -22.1709 -9.37119 0 
1013 1 -21.0405 -9.32684 0 
1015 1 -19.9093 -9.28045 0 
1017 1 -18.7777 -9.23226 0 
1019 1 -17.6458 -9.18267 0 
1021 1 -16.5137 -9.13084 0 
1023 1 -15.3811 -9.07702 0 
1025 1 -14.2481 -9.02174 0 
1027 1 -13.1151 -8.96356 0 
1029 1 -11.9822 -8.90335 0 
932 1 -10.2539 -9.78699 0 
1031 1 -10.8499 -8.84132 0 
934 1 -9.12344 -9.72413 0 
1033 1 -9.71835 -8.77694 0 
936 1 -7.99351 -9.66073 0 
1035 1 -8.58728 -8.71173 0 
938 1 -6.86541 -9.59659 0 
940 1 -5.7386 -9.53327 0 
942 1 -4.61304 -9.47158 0 
944 1 -3.48864 -9.41271 0 
946 1 -2.36496 -9.35785 0 
948 1 -1.24107 -9.30729 0 
950 1 -0.116632 -9.26125 0 
952 1 1.00815 -9.22041 0 
954 1 2.1341 -9.18346 0 
956 1 3.26091 -9.15007 0 
958 1 4.38835 -9.12013 0 
960 1 5.51617 -9.09273 0 
962 1 6.6446 -9.06789 0 
964 1 7.77388 -9.04496 0 
966 1 8.90354 -9.02372 0 
968 1 10.0332 -9.00456 0 
970 1 11.1629 -8.98684 0 
972 1 12.293 -8.97086 0 
974 1 13.4231 -8.95559 0 
976 1 14.5536 -8.94172 0 
978 1 15.6838 -8.92888 0 
980 1 16.814 -8.91735 0 
982 1 17.9446 -8.90657 0 
984 1 19.0753 -8.89694 0 
986 1 20.2061 -8.88768 0 
988 1 21.3369 -8.87964 0 
990 1 22.4677 -8.87196 0 
992 1 23.5983 -8.8653 0 
994 1 24.7293 -8.85883 0 
996 2 25.8608 -8.85435 0 
998 2 26.9933 -8.85174 0 
1000 2 28.1257 -8.84931 0 
1002 2 -27.2783 -8.57905 0 
1101 2 -27.8711 -7.62598 0 
1004 2 -26.1516 -8.54247 0 
1103 2 -26.7449 -7.58983 0 
1006 2 -25.0246 -8.50509 0 
1105 2 -25.6186 -7.5529 0 
1008 1 -23.8961 -8.46523 0 
1107 2 -24.492 -7.51516 0 
1010 1 -22.7672 -8.42291 0 
1012 1 -21.6373 -8.37893 0 
1014 1 -20.5074 -8.33397 0 
1016 1 -19.3765 -8.28675 0 
1018 1 -18.2451 -8.23749 0 
1020 1 -17.1134 -8.18652 0 
1022 1 -15.9811 -8.13353 0 
1024 1 -14.8483 -8.07854 0 
1026 1 -13.7154 -8.02101 0 
1028 1 -12.5822 -7.96067 0 
1030 1 -11.4488 -7.89807 0 
1032 1 -10.3158 -7.83273 0 
1034 1 -9.18318 -7.76552 0 
1036 1 -8.05219 -7.69621 0 
1037 1 -7.45763 -8.64472 0 
1038 1 -6.92277 -7.626 0 
1039 1 -6.32937 -8.57775 0 
1041 1 -5.2029 -8.5121 0 
1043 1 -4.0776 -8.44898 0 
1045 1 -2.9534 -8.38948 0 
1047 1 -1.83007 -8.33554 0 
1049 1 -0.705821 -8.28723 0 
1051 1 0.419634 -8.24412 0 
1053 1 1.54585 -8.20605 0 
1055 1 2.67288 -8.1714 0 
1057 1 3.80098 -8.14065 0 
1059 1 4.92992 -8.11265 0 
1061 1 6.0592 -8.08692 0 
1063 1 7.18907 -8.06438 0 
1065 1 8.31927 -8.043 0 
1067 1 9.44993 -8.02306 0 
1069 1 10.5807 -8.00498 0 
1071 1 11.7117 -7.98864 0 
1073 1 12.8424 -7.97363 0 
1075 1 13.9733 -7.95949 0 
1077 1 15.1042 -7.94628 0 
1079 1 16.2352 -7.93436 0 
1081 1 17.3661 -7.92381 0 
1083 1 18.4975 -7.91429 0 
1085 1 19.6289 -7.90542 0 
1087 1 20.7603 -7.89741 0 
1089 1 21.8917 -7.89002 0 
1091 1 23.0234 -7.88307 0 
1093 1 24.1546 -7.8771 0 
1095 2 25.2861 -7.87134 0 
1097 2 26.419 -7.86899 0 
1099 2 27.5519 -7.8668 0 
1102 2 -27.3381 -6.63684 0 
1104 2 -26.2124 -6.60035 0 
1106 2 -25.0865 -6.56307 0 
1108 1 -23.9596 -6.52356 0 
1109 1 -23.3634 -7.47348 0 
1110 1 -22.8318 -6.48195 0 
1111 1 -22.2346 -7.43088 0 
1112 1 -21.7037 -6.43865 0 
1113 1 -21.1053 -7.38641 0 
1114 1 -20.5749 -6.39352 0 
1115 1 -19.9757 -7.34083 0 
1116 1 -19.4456 -6.34714 0 
1117 1 -18.8453 -7.29277 0 
1119 1 -17.714 -7.24237 0 
1121 1 -16.5827 -7.19031 0 
1123 1 -15.4504 -7.13626 0 
1125 1 -14.3177 -7.07937 0 
1127 1 -13.1846 -7.01952 0 
1129 1 -12.0509 -6.95722 0 
1131 1 -10.917 -6.89166 0 
1133 1 -9.78314 -6.8231 0 
1135 1 -8.65057 -6.75149 0 
1137 1 -7.51932 -6.67818 0 
1139 1 -6.38995 -6.6037 0 
1040 1 -5.79523 -7.55578 0 
1141 1 -5.26244 -6.53034 0 
1042 1 -4.66908 -7.48798 0 
1143 1 -4.13737 -6.45952 0 
1044 1 -3.54458 -7.42352 0 
1046 1 -2.42077 -7.36449 0 
1048 1 -1.29651 -7.31325 0 
1050 1 -0.17111 -7.26789 0 
1052 1 0.955272 -7.22815 0 
1054 1 2.08291 -7.19278 0 
1056 1 3.21194 -7.16123 0 
1058 1 4.34188 -7.13289 0 
1060 1 5.47255 -7.10641 0 
1062 1 6.60353 -7.08304 0 
1064 1 7.73467 -7.06195 0 
1066 1 8.8662 -7.04203 0 
1068 1 9.99801 -7.02347 0 
1070 1 11.1298 -7.0066 0 
1072 1 12.2616 -6.99096 0 
1074 1 13.3932 -6.97711 0 
1076 1 14.5245 -6.96369 0 
1078 1 15.656 -6.95162 0 
1080 1 16.7879 -6.9407 0 
1082 1 17.9199 -6.93159 0 
1084 1 19.052 -6.92293 0 
1086 1 20.1842 -6.91507 0 
1088 1 21.3163 -6.90793 0 
1090 1 22.4485 -6.90125 0 
1092 1 23.5808 -6.89479 0 
1094 1 24.7129 -6.88999 0 
1096 2 25.8451 -6.88616 0 
1098 2 26.9784 -6.88422 0 
1100 2 28.1116 -6.88241 0 
1201 2 -27.9311 -5.68349 0 
1203 2 -26.806 -5.64742 0 
1205 2 -25.6808 -5.61059 0 