ITEM: TIMESTEP
1700
ITEM: NUMBER OF ATOMS
2850
ITEM: BOX BOUNDS ff ff pp
-42.092 42.092
-42.092 42.092
-0.280613 0.280613
ITEM: ATOMS id type xu yu zu 
1 2 -27.3398 -28.9988 0 
3 2 -26.2107 -28.9642 0 
5 2 -25.0816 -28.9291 0 
7 2 -23.9525 -28.8936 0 
9 2 -22.8235 -28.8577 0 
11 2 -21.6944 -28.8213 0 
13 2 -20.5655 -28.7844 0 
15 2 -19.4366 -28.7472 0 
17 2 -18.3079 -28.7095 0 
19 2 -17.1793 -28.6715 0 
21 2 -16.0508 -28.6331 0 
23 2 -14.9226 -28.5944 0 
25 2 -13.7947 -28.5554 0 
27 2 -12.667 -28.5163 0 
29 2 -11.5396 -28.477 0 
31 2 -10.4126 -28.4376 0 
33 2 -9.28592 -28.3982 0 
35 2 -8.15967 -28.3589 0 
37 2 -7.03386 -28.3198 0 
39 2 -5.90848 -28.281 0 
2 2 -26.7941 -28.0086 0 
4 2 -25.6649 -27.9736 0 
6 2 -24.5357 -27.9381 0 
8 2 -23.4065 -27.902 0 
10 2 -22.2773 -27.8656 0 
12 2 -21.1481 -27.8286 0 
14 2 -20.019 -27.7912 0 
16 2 -18.89 -27.7533 0 
18 2 -17.7611 -27.715 0 
20 2 -16.6324 -27.6763 0 
22 2 -15.5039 -27.6373 0 
24 2 -14.3755 -27.5979 0 
26 2 -13.2475 -27.5582 0 
28 2 -12.1197 -27.5183 0 
30 2 -10.9923 -27.4783 0 
32 2 -9.86522 -27.4382 0 
34 2 -8.73856 -27.3981 0 
36 2 -7.61233 -27.3581 0 
38 2 -6.48656 -27.3184 0 
40 2 -5.36126 -27.2789 0 
41 2 -4.78357 -28.2426 0 
42 2 -4.23645 -27.24 0 
43 2 -3.65912 -28.2046 0 
44 2 -3.11213 -27.2015 0 
45 2 -2.53513 -28.1673 0 
46 2 -1.98828 -27.1638 0 
47 2 -1.41159 -28.1307 0 
48 2 -0.8649 -27.1269 0 
49 2 -0.288464 -28.095 0 
51 2 0.834263 -28.0602 0 
53 2 1.95663 -28.0264 0 
55 2 3.07869 -27.9937 0 
57 2 4.20048 -27.9622 0 
59 2 5.32207 -27.9319 0 
61 2 6.4435 -27.9029 0 
63 2 7.56483 -27.8752 0 
65 2 8.68613 -27.8488 0 
67 2 9.80743 -27.8237 0 
69 2 10.9288 -27.8 0 
71 2 12.0503 -27.7775 0 
73 2 13.1719 -27.7563 0 
75 2 14.2937 -27.7363 0 
77 2 15.4157 -27.7174 0 
79 2 16.538 -27.6997 0 
81 2 17.6605 -27.683 0 
83 2 18.7832 -27.6673 0 
85 2 19.9063 -27.6526 0 
87 2 21.0296 -27.6388 0 
89 2 22.1532 -27.6258 0 
91 2 23.2771 -27.6136 0 
93 2 24.4012 -27.6022 0 
95 2 25.5256 -27.5914 0 
97 2 26.6503 -27.5812 0 
99 2 27.7752 -27.5717 0 
101 2 -27.378 -27.0533 0 
103 2 -26.2487 -27.0183 0 
102 2 -26.833 -26.0633 0 
105 2 -25.1194 -26.9828 0 
104 2 -25.7037 -26.0278 0 
107 2 -23.9901 -26.9468 0 
106 2 -24.5742 -25.9918 0 
109 2 -22.8607 -26.9102 0 
108 1 -23.4424 -25.9544 0 
111 2 -21.7314 -26.8732 0 
113 2 -20.6021 -26.8357 0 
115 2 -19.4729 -26.7977 0 
117 2 -18.3437 -26.7591 0 
119 2 -17.2147 -26.7202 0 
121 2 -16.0858 -26.6808 0 
123 2 -14.9572 -26.641 0 
125 2 -13.8287 -26.6009 0 
127 2 -12.7006 -26.5605 0 
129 2 -11.5727 -26.5198 0 
131 2 -10.4452 -26.479 0 
133 2 -9.31813 -26.4382 0 
135 2 -8.19146 -26.3973 0 
137 2 -7.06526 -26.3566 0 
139 2 -5.93954 -26.3162 0 
141 2 -4.81433 -26.2762 0 
143 2 -3.68963 -26.2366 0 
145 2 -2.56545 -26.1977 0 
147 2 -1.44177 -26.1596 0 
50 2 0.258046 -27.0909 0 
149 2 -0.318563 -26.1224 0 
52 2 1.38059 -27.056 0 
151 2 0.804196 -26.0862 0 
54 2 2.50279 -27.0222 0 
153 2 1.92656 -26.0512 0 
56 2 3.62468 -26.9896 0 
155 2 3.04857 -26.0174 0 
58 2 4.74633 -26.9582 0 
157 2 4.1703 -25.9849 0 
60 2 5.86779 -26.9282 0 
159 2 5.2918 -25.9538 0 
62 2 6.98913 -26.8996 0 
64 2 8.11041 -26.8723 0 
66 2 9.23169 -26.8465 0 
68 2 10.353 -26.822 0 
70 2 11.4745 -26.7989 0 
72 2 12.596 -26.7771 0 
74 2 13.7178 -26.7566 0 
76 2 14.8398 -26.7373 0 
78 2 15.962 -26.7192 0 
80 2 17.0845 -26.7023 0 
82 2 18.2073 -26.6863 0 
84 2 19.3304 -26.6714 0 
86 2 20.4538 -26.6575 0 
88 2 21.5774 -26.6444 0 
90 2 22.7014 -26.6321 0 
92 2 23.8256 -26.6206 0 
94 2 24.9501 -26.6098 0 
96 2 26.0749 -26.5996 0 
98 2 27.2 -26.5901 0 
100 2 28.3253 -26.5811 0 
201 2 -27.4179 -25.1085 0 
203 2 -26.2885 -25.0731 0 
205 2 -25.159 -25.0372 0 
207 2 -24.0295 -25.0007 0 
209 1 -22.8996 -24.9613 0 
110 1 -22.3136 -25.9168 0 
211 1 -21.7698 -24.9235 0 
112 1 -21.185 -25.879 0 
213 1 -20.6386 -24.8845 0 
114 1 -20.0567 -25.8418 0 
215 1 -19.5103 -24.8446 0 
116 1 -18.9289 -25.8029 0 
217 1 -18.3827 -24.8052 0 
118 1 -17.8003 -25.7635 0 
120 1 -16.6708 -25.7214 0 
122 1 -15.5428 -25.6814 0 
124 1 -14.4143 -25.6428 0 
126 1 -13.2848 -25.6015 0 
128 1 -12.1569 -25.5595 0 
130 1 -11.0286 -25.5196 0 
132 1 -9.90031 -25.4794 0 
134 1 -8.77328 -25.4366 0 
136 1 -7.6475 -25.3943 0 
138 1 -6.52257 -25.3508 0 
140 1 -5.39731 -25.312 0 
142 1 -4.27107 -25.273 0 
144 1 -3.14678 -25.2322 0 
146 1 -2.02284 -25.1951 0 
148 1 -0.898621 -25.1577 0 
150 1 0.223668 -25.1202 0 
152 1 1.346 -25.0853 0 
154 1 2.46864 -25.0497 0 
156 1 3.59024 -25.0167 0 
158 1 4.71228 -24.9844 0 
160 1 5.83465 -24.955 0 
161 2 6.41316 -25.9242 0 
162 1 6.95617 -24.9263 0 
163 2 7.53443 -25.896 0 
164 1 8.0782 -24.8984 0 
165 2 8.65568 -25.8693 0 
167 2 9.77697 -25.844 0 
166 1 9.19956 -24.8714 0 
169 2 10.8984 -25.8202 0 
168 1 10.321 -24.8457 0 
171 2 12.0199 -25.7978 0 
170 1 11.4432 -24.823 0 
173 2 13.1416 -25.7768 0 
175 2 14.2636 -25.7571 0 
177 2 15.3858 -25.7386 0 
179 2 16.5083 -25.7213 0 
181 2 17.6311 -25.7052 0 
183 2 18.7543 -25.6901 0 
185 2 19.8777 -25.6759 0 
187 2 21.0014 -25.6627 0 
189 2 22.1254 -25.6504 0 
191 2 23.2498 -25.6388 0 
193 2 24.3744 -25.628 0 
195 2 25.4993 -25.6179 0 
197 2 26.6245 -25.6084 0 
199 2 27.75 -25.5994 0 
202 2 -26.8739 -24.1187 0 
204 2 -25.7444 -24.0828 0 
206 2 -24.6148 -24.0464 0 
208 1 -23.4857 -24.0083 0 
210 1 -22.3552 -23.9682 0 
212 1 -21.2251 -23.9298 0 
214 1 -20.096 -23.8872 0 
216 1 -18.967 -23.8475 0 
219 1 -17.2552 -24.7646 0 
218 1 -17.8383 -23.8071 0 
221 1 -16.1265 -24.7232 0 
220 1 -16.7098 -23.7666 0 
222 1 -15.5808 -23.7274 0 
223 1 -14.9979 -24.6846 0 
224 1 -14.4531 -23.6863 0 
225 1 -13.87 -24.6442 0 
227 1 -12.7418 -24.6012 0 
229 1 -11.6128 -24.5605 0 
231 1 -10.4822 -24.5194 0 
233 1 -9.35481 -24.4775 0 
235 1 -8.22926 -24.4334 0 
237 1 -7.10333 -24.3898 0 
239 1 -5.97795 -24.3491 0 
241 1 -4.85464 -24.3094 0 
243 1 -3.73189 -24.2674 0 
245 1 -2.60685 -24.229 0 
247 1 -1.48202 -24.1898 0 
249 1 -0.358313 -24.1501 0 
251 1 0.76447 -24.115 0 
253 1 1.88848 -24.0814 0 
255 1 3.01209 -24.0467 0 
257 1 4.13375 -24.0135 0 
259 1 5.25693 -23.9838 0 
261 1 6.38012 -23.9536 0 
263 1 7.50305 -23.9259 0 
265 1 8.62527 -23.8989 0 
267 1 9.74643 -23.8722 0 
269 1 10.8683 -23.8479 0 
271 1 11.9904 -23.8264 0 
172 1 12.5657 -24.8015 0 
273 1 13.1127 -23.8044 0 
174 1 13.688 -24.7805 0 
275 1 14.2348 -23.7836 0 
176 1 14.8111 -24.7612 0 
277 1 15.3575 -23.7645 0 
178 1 15.9342 -24.743 0 
279 1 16.4803 -23.7472 0 
180 1 17.0571 -24.7262 0 
281 1 17.6033 -23.7324 0 
182 1 18.1802 -24.7114 0 
283 1 18.7273 -23.7166 0 
184 1 19.3024 -24.6962 0 
285 1 19.8511 -23.7018 0 
186 1 20.4255 -24.6822 0 
287 1 20.9747 -23.6884 0 
188 1 21.5503 -24.6696 0 
289 1 22.0991 -23.6762 0 
190 1 22.6755 -24.6571 0 
291 1 23.2244 -23.6641 0 
192 1 23.8003 -24.6461 0 
293 1 24.3492 -23.6537 0 
194 1 24.9248 -24.6359 0 
295 2 25.4729 -23.6443 0 
196 2 26.0488 -24.6264 0 
198 2 27.1745 -24.6176 0 
200 2 28.3003 -24.6093 0 
301 2 -27.4598 -23.1644 0 
303 2 -26.3303 -23.1287 0 
305 2 -25.2007 -23.0924 0 
307 2 -24.071 -23.0555 0 
309 1 -22.9408 -23.015 0 
311 1 -21.8104 -22.9746 0 
313 1 -20.6816 -22.9333 0 
315 1 -19.5519 -22.8925 0 
317 1 -18.4226 -22.8514 0 
319 1 -17.2944 -22.8103 0 
321 1 -16.166 -22.7706 0 
323 1 -15.0377 -22.7291 0 
226 1 -13.3245 -23.6442 0 
325 1 -13.9079 -22.6875 0 
327 1 -12.7772 -22.6456 0 
228 1 -12.195 -23.6024 0 
329 1 -11.6488 -22.602 0 
230 1 -11.0667 -23.561 0 
331 1 -10.5213 -22.5595 0 
232 1 -9.93814 -23.5173 0 
333 1 -9.39413 -22.5146 0 
234 1 -8.81164 -23.4733 0 
236 1 -7.68491 -23.4303 0 
238 1 -6.55863 -23.3877 0 
240 1 -5.43569 -23.3451 0 
242 1 -4.31325 -23.3029 0 
244 1 -3.18872 -23.2638 0 
246 1 -2.06413 -23.2232 0 
248 1 -0.940994 -23.1828 0 
250 1 0.182811 -23.1452 0 
252 1 1.30662 -23.1112 0 
254 1 2.42941 -23.0774 0 
256 1 3.55239 -23.0432 0 
258 1 4.67675 -23.0132 0 
260 1 5.80012 -22.9828 0 
262 1 6.92322 -22.9533 0 
264 1 8.04573 -22.9254 0 
266 1 9.16751 -22.8977 0 
268 1 10.2895 -22.8729 0 
270 1 11.4118 -22.8494 0 
272 1 12.5336 -22.828 0 
274 1 13.6555 -22.8062 0 
276 1 14.7775 -22.7865 0 
278 1 15.9009 -22.7685 0 
280 1 17.025 -22.7524 0 
282 1 18.1488 -22.7374 0 
284 1 19.273 -22.7221 0 
286 1 20.3979 -22.7076 0 
288 1 21.5237 -22.6948 0 
290 1 22.6493 -22.6834 0 
292 1 23.7747 -22.6729 0 
294 1 24.8986 -22.6622 0 
297 2 26.5987 -23.6355 0 
296 2 26.0228 -22.6533 0 
299 2 27.7248 -23.6273 0 
298 2 27.149 -22.6452 0 
300 2 28.2755 -22.6376 0 
302 2 -26.9167 -22.1747 0 
304 2 -25.7871 -22.1385 0 
306 2 -24.6574 -22.1018 0 
308 1 -23.5274 -22.0622 0 
310 1 -22.3968 -22.0212 0 
312 1 -21.2658 -21.9801 0 
314 1 -20.136 -21.9391 0 
316 1 -19.0079 -21.8975 0 
318 1 -17.8796 -21.8549 0 
320 1 -16.7504 -21.8142 0 
322 1 -15.6218 -21.7721 0 
324 1 -14.4928 -21.7306 0 
326 1 -13.3632 -21.6894 0 
328 1 -12.2337 -21.6451 0 
330 1 -11.1057 -21.6021 0 
332 1 -9.97805 -21.5581 0 
334 1 -8.85158 -21.5112 0 
335 1 -8.26817 -22.4697 0 
336 1 -7.72693 -21.4638 0 
337 1 -7.14259 -22.4258 0 
338 1 -6.60304 -21.4171 0 
339 1 -6.01878 -22.381 0 
340 1 -5.4777 -21.3749 0 
341 1 -4.89448 -22.3381 0 
343 1 -3.76992 -22.2981 0 
345 1 -2.64633 -22.2593 0 
347 1 -1.52199 -22.2179 0 
349 1 -0.39826 -22.1805 0 
351 1 0.725097 -22.1436 0 
353 1 1.84932 -22.1082 0 
355 1 2.97272 -22.0742 0 
357 1 4.09611 -22.0425 0 
359 1 5.21848 -22.0115 0 
361 1 6.34148 -21.9821 0 
363 1 7.46455 -21.9532 0 
365 1 8.58702 -21.9246 0 
367 1 9.70988 -21.8976 0 
369 1 10.8321 -21.8735 0 
371 1 11.9549 -21.8496 0 
373 1 13.078 -21.8286 0 
375 1 14.202 -21.8088 0 
377 1 15.3253 -21.7903 0 
379 1 16.4487 -21.7732 0 
381 1 17.5726 -21.7574 0 
383 1 18.6967 -21.7424 0 
385 1 19.8222 -21.7286 0 
387 1 20.9489 -21.7146 0 
389 1 22.0749 -21.7019 0 
391 1 23.1995 -21.6927 0 
393 1 24.3235 -21.682 0 
395 2 25.4466 -21.6709 0 
397 2 26.573 -21.6629 0 
399 2 27.6998 -21.6554 0 
401 2 -27.5037 -21.2208 0 
403 2 -26.3741 -21.1849 0 
402 2 -26.9617 -20.2313 0 
405 2 -25.2445 -21.1483 0 
404 2 -25.8321 -20.1949 0 
407 2 -24.1147 -21.111 0 
409 1 -22.9845 -21.0691 0 
411 1 -21.8531 -21.0277 0 
413 1 -20.7228 -20.9857 0 
415 1 -19.5946 -20.9433 0 
417 1 -18.4667 -20.9006 0 
419 1 -17.3366 -20.8589 0 
421 1 -16.2072 -20.8165 0 
423 1 -15.078 -20.7739 0 
425 1 -13.95 -20.7331 0 
427 1 -12.8215 -20.6903 0 
429 1 -11.6916 -20.644 0 
431 1 -10.5626 -20.6002 0 
433 1 -9.43656 -20.5523 0 
435 1 -8.311 -20.5042 0 
437 1 -7.18487 -20.4569 0 
439 1 -6.05942 -20.413 0 
342 1 -4.35291 -21.3333 0 
441 1 -4.93564 -20.3694 0 
344 1 -3.22995 -21.2926 0 
443 1 -3.81259 -20.3264 0 
346 1 -2.10646 -21.2545 0 
445 1 -2.68862 -20.2872 0 
348 1 -0.980692 -21.2155 0 
447 1 -1.56481 -20.2491 0 
350 1 0.142465 -21.1761 0 
352 1 1.26579 -21.1408 0 
354 1 2.39005 -21.1056 0 
356 1 3.5136 -21.0716 0 
358 1 4.63658 -21.0396 0 
360 1 5.75971 -21.0103 0 
362 1 6.88329 -20.9811 0 
364 1 8.00758 -20.9522 0 
366 1 9.13197 -20.9243 0 
368 1 10.2555 -20.898 0 
370 1 11.3777 -20.8739 0 
372 1 12.5018 -20.8509 0 
374 1 13.6256 -20.8319 0 
376 1 14.7496 -20.812 0 
378 1 15.874 -20.7947 0 
380 1 16.9978 -20.7782 0 
382 1 18.121 -20.7625 0 
384 1 19.2452 -20.749 0 
386 1 20.3712 -20.7352 0 
388 1 21.4975 -20.7221 0 
390 1 22.6229 -20.7106 0 
392 1 23.7466 -20.7013 0 
394 1 24.8711 -20.6902 0 
396 2 25.9969 -20.6804 0 
398 2 27.1238 -20.673 0 
400 2 28.251 -20.6661 0 
501 2 -27.5497 -19.2779 0 
503 2 -26.4202 -19.2417 0 
505 2 -25.2906 -19.2049 0 
406 2 -24.7023 -20.1579 0 
507 2 -24.1608 -19.1673 0 
408 1 -23.572 -20.1172 0 
509 1 -23.0302 -19.1238 0 
410 1 -22.4415 -20.0758 0 
511 1 -21.9002 -19.0812 0 
412 1 -21.3107 -20.0325 0 
513 1 -20.7696 -19.0373 0 
414 1 -20.1815 -19.9895 0 
416 1 -19.0529 -19.9461 0 
418 1 -17.9233 -19.9036 0 
420 1 -16.7947 -19.8611 0 
422 1 -15.6657 -19.8203 0 
424 1 -14.5354 -19.7781 0 
426 1 -13.4072 -19.7346 0 
428 1 -12.2785 -19.6884 0 
430 1 -11.1482 -19.6416 0 
432 1 -10.0212 -19.592 0 
434 1 -8.89407 -19.5451 0 
436 1 -7.76768 -19.4998 0 
438 1 -6.64149 -19.4533 0 
440 1 -5.51716 -19.4058 0 
442 1 -4.39404 -19.3619 0 
444 1 -3.26937 -19.3206 0 
446 1 -2.14522 -19.2803 0 
448 1 -1.02281 -19.2393 0 
449 1 -0.442291 -20.2079 0 
450 1 0.0998068 -19.2014 0 
451 1 0.681429 -20.1701 0 
452 1 1.22436 -19.1652 0 
453 1 1.80547 -20.1358 0 
454 1 2.3475 -19.1299 0 
455 1 2.92912 -20.1009 0 
456 1 3.47212 -19.0973 0 
457 1 4.05334 -20.0684 0 
459 1 5.17721 -20.0375 0 
461 1 6.30098 -20.0077 0 
463 1 7.42595 -19.9791 0 
465 1 8.55042 -19.9506 0 
467 1 9.67459 -19.9239 0 
469 1 10.798 -19.8991 0 
471 1 11.9217 -19.8765 0 
473 1 13.0462 -19.8536 0 
475 1 14.17 -19.8346 0 
477 1 15.2949 -19.8164 0 
479 1 16.4195 -19.7998 0 
481 1 17.5449 -19.7845 0 
483 1 18.6694 -19.7695 0 
485 1 19.7935 -19.7554 0 
487 1 20.9197 -19.7423 0 
489 1 22.0455 -19.7301 0 
491 1 23.1713 -19.7197 0 
493 1 24.2962 -19.7089 0 
495 2 25.4205 -19.6978 0 
497 2 26.5477 -19.6905 0 
499 2 27.6751 -19.6838 0 
502 2 -27.0088 -18.2886 0 
504 2 -25.8793 -18.252 0 
506 2 -24.7497 -18.2147 0 
508 1 -23.62 -18.1749 0 
510 1 -22.4886 -18.1299 0 
512 1 -21.3584 -18.0863 0 
514 1 -20.2286 -18.042 0 
515 1 -19.6402 -18.9932 0 
516 1 -19.0987 -17.9981 0 
517 1 -18.5101 -18.9497 0 
518 1 -17.9682 -17.9541 0 
519 1 -17.38 -18.9062 0 
520 1 -16.8377 -17.9102 0 
521 1 -16.2508 -18.8651 0 
523 1 -15.1221 -18.8248 0 
525 1 -13.9928 -18.7795 0 
527 1 -12.8632 -18.7331 0 
529 1 -11.7333 -18.6852 0 
531 1 -10.606 -18.6354 0 
533 1 -9.47811 -18.588 0 
535 1 -8.35033 -18.5408 0 
537 1 -7.22555 -18.4937 0 
539 1 -6.10188 -18.4449 0 
541 1 -4.97631 -18.3979 0 
543 1 -3.85122 -18.3558 0 
545 1 -2.72827 -18.3133 0 
547 1 -1.60532 -18.2721 0 
549 1 -0.481536 -18.2332 0 
551 1 0.640757 -18.197 0 
553 1 1.76348 -18.1596 0 
555 1 2.8879 -18.126 0 
557 1 4.01256 -18.0922 0 
458 1 4.59597 -19.0647 0 
559 1 5.13697 -18.0624 0 
460 1 5.72022 -19.0338 0 
561 1 6.26224 -18.0328 0 
462 1 6.84469 -19.0058 0 
563 1 7.38671 -18.0043 0 
464 1 7.96875 -18.9773 0 
565 1 8.51122 -17.9767 0 
466 1 9.09366 -18.9498 0 
567 1 9.63685 -17.9497 0 
468 1 10.2185 -18.9234 0 
569 1 10.7619 -17.9246 0 
470 1 11.3428 -18.9006 0 
472 1 12.4661 -18.8779 0 
474 1 13.5905 -18.857 0 
476 1 14.715 -18.8389 0 
478 1 15.8408 -18.8219 0 
480 1 16.9673 -18.807 0 
482 1 18.0933 -18.7921 0 
484 1 19.219 -18.7768 0 
486 1 20.3443 -18.7633 0 
488 1 21.4687 -18.7496 0 
490 1 22.5952 -18.7394 0 
492 1 23.7211 -18.7283 0 
494 1 24.8464 -18.7162 0 
496 2 25.9714 -18.7078 0 
498 2 27.0991 -18.7012 0 
500 2 28.2271 -18.6951 0 
601 2 -27.5979 -17.3354 0 
603 2 -26.4686 -17.2992 0 
605 2 -25.3391 -17.2621 0 
607 2 -24.2094 -17.2244 0 
609 1 -23.0791 -17.1811 0 
611 1 -21.9479 -17.1355 0 
613 1 -20.8171 -17.0919 0 
615 1 -19.6866 -17.046 0 
617 1 -18.5572 -17.0022 0 
619 1 -17.4267 -16.9586 0 
522 1 -15.7079 -17.8686 0 
621 1 -16.2943 -16.9138 0 
524 1 -14.5788 -17.8255 0 
623 1 -15.1638 -16.8695 0 
526 1 -13.4484 -17.7795 0 
625 1 -14.0342 -16.8265 0 
528 1 -12.3185 -17.7319 0 
627 1 -12.9049 -16.7792 0 
530 1 -11.1894 -17.6811 0 
532 1 -10.0618 -17.632 0 
534 1 -8.93476 -17.5838 0 
536 1 -7.80883 -17.5331 0 
538 1 -6.68456 -17.4831 0 
540 1 -5.56026 -17.4361 0 
542 1 -4.43517 -17.3929 0 
544 1 -3.31135 -17.3464 0 
546 1 -2.18788 -17.3045 0 
548 1 -1.06385 -17.2664 0 
550 1 0.0588949 -17.2257 0 
552 1 1.18167 -17.1884 0 
554 1 2.30547 -17.1543 0 
556 1 3.43008 -17.1201 0 
558 1 4.55488 -17.0884 0 
560 1 5.67846 -17.0604 0 
562 1 6.80381 -17.0317 0 
564 1 7.92931 -17.0031 0 
566 1 9.05444 -16.9769 0 
568 1 10.1789 -16.9508 0 
571 1 11.8857 -17.9012 0 
570 1 11.3036 -16.9265 0 
573 1 13.0107 -17.8811 0 
572 1 12.4293 -16.9052 0 
575 1 14.1365 -17.8612 0 
574 1 13.5553 -16.8849 0 
577 1 15.2629 -17.8449 0 
576 1 14.6829 -16.8669 0 
579 1 16.39 -17.8289 0 
578 1 15.8098 -16.8518 0 
581 1 17.5159 -17.8141 0 
580 1 16.9374 -16.8365 0 
583 1 18.6405 -17.7991 0 
582 1 18.063 -16.8212 0 
585 1 19.7668 -17.7853 0 
584 1 19.1889 -16.8075 0 
587 1 20.8926 -17.7712 0 
586 1 20.3147 -16.7935 0 
589 1 22.0181 -17.7588 0 
588 1 21.4413 -16.7808 0 
591 1 23.1427 -17.7469 0 
590 1 22.5679 -16.7665 0 
593 1 24.2686 -17.7361 0 
592 1 23.6928 -16.7548 0 
595 2 25.3948 -17.725 0 
594 1 24.8192 -16.7442 0 
596 2 25.9465 -16.7357 0 
597 2 26.5229 -17.7186 0 
598 2 27.0751 -16.7299 0 
599 2 27.6512 -17.7126 0 
600 2 28.2039 -16.7246 0 
602 2 -27.0583 -16.3463 0 
604 2 -25.929 -16.3096 0 
606 2 -24.7995 -16.2721 0 
608 1 -23.669 -16.231 0 
610 1 -22.5376 -16.1864 0 
612 1 -21.4071 -16.141 0 
614 1 -20.2776 -16.0958 0 
616 1 -19.1456 -16.0498 0 
618 1 -18.0137 -16.0064 0 
620 1 -16.8829 -15.962 0 
622 1 -15.7522 -15.9163 0 
624 1 -14.6206 -15.8721 0 
626 1 -13.491 -15.8248 0 
628 1 -12.3623 -15.7752 0 
629 1 -11.7752 -16.7286 0 
630 1 -11.233 -15.7219 0 
631 1 -10.6459 -16.6762 0 
632 1 -10.1038 -15.6695 0 
633 1 -9.51761 -16.6257 0 
634 1 -8.97605 -15.6178 0 
635 1 -8.39148 -16.5748 0 
637 1 -7.26674 -16.5235 0 
639 1 -6.14176 -16.4744 0 
641 1 -5.01693 -16.4285 0 
643 1 -3.89519 -16.3828 0 
645 1 -2.77007 -16.3383 0 
647 1 -1.64425 -16.2974 0 
649 1 -0.521489 -16.2549 0 
651 1 0.602767 -16.2174 0 
653 1 1.72681 -16.1816 0 
655 1 2.84934 -16.1465 0 
657 1 3.97404 -16.115 0 
659 1 5.09915 -16.0847 0 
661 1 6.22346 -16.0578 0 
663 1 7.34797 -16.0297 0 
665 1 8.47302 -16.0027 0 
667 1 9.5985 -15.9767 0 
669 1 10.7232 -15.9521 0 
671 1 11.8486 -15.9296 0 
673 1 12.9748 -15.9098 0 
675 1 14.1027 -15.8913 0 
677 1 15.23 -15.8728 0 
679 1 16.3568 -15.8602 0 
681 1 17.4839 -15.8443 0 
683 1 18.611 -15.8306 0 
685 1 19.7379 -15.8156 0 
687 1 20.865 -15.8023 0 
689 1 21.9913 -15.7887 0 
691 1 23.1178 -15.7741 0 
693 1 24.2437 -15.7631 0 
695 2 25.3699 -15.7527 0 
697 2 26.4989 -15.7471 0 
699 2 27.6281 -15.742 0 
701 2 -27.6483 -15.3934 0 
703 2 -26.5193 -15.357 0 
705 2 -25.3901 -15.3199 0 
707 2 -24.2607 -15.282 0 
709 1 -23.1288 -15.2379 0 
711 1 -21.9973 -15.1904 0 
713 1 -20.8679 -15.1445 0 
715 1 -19.7375 -15.0996 0 
717 1 -18.6047 -15.055 0 
719 1 -17.472 -15.0105 0 
721 1 -16.3409 -14.9649 0 
723 1 -15.2094 -14.9199 0 
725 1 -14.0795 -14.8713 0 
727 1 -12.9496 -14.8203 0 
729 1 -11.8202 -14.7689 0 
731 1 -10.6914 -14.7154 0 
733 1 -9.56376 -14.6637 0 
636 1 -7.85099 -15.5656 0 
735 1 -8.43654 -14.6099 0 
638 1 -6.7265 -15.5158 0 
737 1 -7.31158 -14.5572 0 
640 1 -5.60136 -15.4664 0 
739 1 -6.18729 -14.5064 0 
642 1 -4.47792 -15.4179 0 
644 1 -3.35296 -15.3741 0 
646 1 -2.22849 -15.3302 0 
648 1 -1.10599 -15.2857 0 
650 1 0.019474 -15.2473 0 
652 1 1.14333 -15.2093 0 
654 1 2.26583 -15.1728 0 
656 1 3.39077 -15.1417 0 
658 1 4.51623 -15.1105 0 
660 1 5.64144 -15.0821 0 
662 1 6.76596 -15.0558 0 
664 1 7.8909 -15.0285 0 
666 1 9.0163 -15.003 0 
668 1 10.1423 -14.9773 0 
670 1 11.269 -14.9541 0 
672 1 12.3957 -14.9329 0 
674 1 13.5234 -14.9154 0 
676 1 14.6521 -14.8973 0 
678 1 15.7811 -14.8817 0 
680 1 16.9065 -14.8667 0 
682 1 18.0329 -14.8534 0 
684 1 19.1593 -14.8389 0 
686 1 20.2869 -14.8243 0 
688 1 21.4154 -14.8097 0 
690 1 22.5429 -14.7962 0 
692 1 23.6696 -14.7823 0 
694 1 24.7961 -14.7726 0 
696 2 25.9226 -14.7642 0 
698 2 27.0521 -14.7592 0 
700 2 28.1818 -14.7547 0 
702 2 -27.11 -14.4044 0 
801 2 -27.7009 -13.4516 0 
704 2 -25.9811 -14.3676 0 
803 2 -26.5724 -13.4152 0 
706 2 -24.852 -14.3301 0 
805 2 -25.4437 -13.3781 0 
708 1 -23.7213 -14.2889 0 
807 2 -24.3146 -13.3401 0 
710 1 -22.5908 -14.242 0 
809 1 -23.1851 -13.2929 0 
712 1 -21.4596 -14.1946 0 
714 1 -20.3296 -14.1495 0 
716 1 -19.1975 -14.1044 0 
718 1 -18.0649 -14.0598 0 
720 1 -16.9328 -14.0138 0 
722 1 -15.8005 -13.9687 0 
724 1 -14.6688 -13.9195 0 
726 1 -13.5385 -13.868 0 
728 1 -12.4082 -13.8168 0 
730 1 -11.2789 -13.7637 0 
732 1 -10.1506 -13.7088 0 
734 1 -9.02396 -13.6558 0 
736 1 -7.89722 -13.6 0 
738 1 -6.77085 -13.546 0 
740 1 -5.64489 -13.4934 0 
741 1 -5.06227 -14.4551 0 
742 1 -4.51848 -13.4467 0 
743 1 -3.93623 -14.4109 0 
744 1 -3.39452 -13.3988 0 
745 1 -2.81182 -14.3644 0 
746 1 -2.2709 -13.3505 0 
747 1 -1.68898 -14.3178 0 
749 1 -0.563564 -14.2782 0 
751 1 0.560175 -14.238 0 
753 1 1.68401 -14.2011 0 
755 1 2.80933 -14.1685 0 
757 1 3.9332 -14.1372 0 
759 1 5.05937 -14.1084 0 
761 1 6.18562 -14.0801 0 
763 1 7.3102 -14.0541 0 
765 1 8.43637 -14.028 0 
767 1 9.56275 -14.0033 0 
769 1 10.6896 -13.9794 0 
771 1 11.8161 -13.9572 0 
773 1 12.9438 -13.9381 0 
775 1 14.0716 -13.92 0 
777 1 15.2006 -13.9046 0 
779 1 16.3288 -13.8882 0 
781 1 17.4562 -13.8742 0 
783 1 18.5822 -13.8606 0 
785 1 19.7089 -13.8456 0 
787 1 20.8372 -13.8319 0 
789 1 21.9653 -13.8176 0 
791 1 23.0944 -13.8054 0 
793 1 24.2217 -13.7915 0 
795 2 25.3462 -13.7811 0 
797 2 26.4761 -13.7764 0 
799 2 27.6062 -13.772 0 
802 2 -27.164 -12.4626 0 
804 2 -26.0357 -12.4259 0 
806 2 -24.9071 -12.3884 0 
808 1 -23.7771 -12.3441 0 
810 1 -22.6467 -12.2982 0 
811 1 -22.0543 -13.2473 0 
812 1 -21.5152 -12.2535 0 
813 1 -20.9222 -13.2003 0 
814 1 -20.3829 -12.2064 0 
815 1 -19.7907 -13.1557 0 
816 1 -19.2515 -12.1613 0 
817 1 -18.6582 -13.1095 0 
818 1 -18.119 -12.1137 0 
819 1 -17.5261 -13.0632 0 
821 1 -16.3913 -13.0173 0 
823 1 -15.2588 -12.9688 0 
825 1 -14.1293 -12.9172 0 
827 1 -12.9983 -12.8666 0 
829 1 -11.8678 -12.8136 0 
831 1 -10.7391 -12.7578 0 
833 1 -9.60978 -12.7007 0 
835 1 -8.48265 -12.6434 0 
837 1 -7.35595 -12.5874 0 
839 1 -6.22878 -12.5342 0 
841 1 -5.1013 -12.4836 0 
843 1 -3.9781 -12.4319 0 
845 1 -2.85418 -12.3837 0 
748 1 -1.14479 -13.3106 0 
847 1 -1.72652 -12.3419 0 
849 1 -0.603239 -12.2976 0 
750 1 -0.0206249 -13.2682 0 
851 1 0.521888 -12.2581 0 
752 1 1.10311 -13.2302 0 
853 1 1.64642 -12.2222 0 
754 1 2.22758 -13.1969 0 
756 1 3.35277 -13.1619 0 
758 1 4.47914 -13.1342 0 
760 1 5.60579 -13.1058 0 
762 1 6.73276 -13.0774 0 
764 1 7.85851 -13.0526 0 
766 1 8.98518 -13.0271 0 
768 1 10.1122 -13.0042 0 
770 1 11.2389 -12.9808 0 
772 1 12.3647 -12.9609 0 
774 1 13.4919 -12.9425 0 
776 1 14.6207 -12.9259 0 
778 1 15.7496 -12.9103 0 
780 1 16.8777 -12.8943 0 
782 1 18.0062 -12.8813 0 
784 1 19.1331 -12.8663 0 
786 1 20.2617 -12.8528 0 
788 1 21.3889 -12.839 0 
790 1 22.5167 -12.8274 0 
792 1 23.6449 -12.8142 0 
794 1 24.7728 -12.8007 0 
796 2 25.9 -12.7934 0 
798 2 27.0306 -12.7893 0 
800 2 28.1612 -12.7854 0 
901 2 -27.7557 -11.5099 0 
903 2 -26.6279 -11.4735 0 
905 2 -25.4997 -11.4364 0 
907 2 -24.3713 -11.3985 0 
909 1 -23.2391 -11.3493 0 
911 1 -22.1081 -11.3042 0 
913 1 -20.9781 -11.2584 0 
915 1 -19.8462 -11.213 0 
917 1 -18.7135 -11.1663 0 
820 1 -16.9852 -12.0687 0 
919 1 -17.5805 -11.1201 0 
822 1 -15.852 -12.0196 0 
921 1 -16.4486 -11.074 0 
824 1 -14.7213 -11.9675 0 
923 1 -15.3164 -11.0224 0 
826 1 -13.5906 -11.9169 0 
828 1 -12.4598 -11.8642 0 
830 1 -11.3293 -11.8083 0 
832 1 -10.1988 -11.7501 0 
834 1 -9.06954 -11.6899 0 
836 1 -7.94093 -11.6319 0 
838 1 -6.81351 -11.5764 0 
840 1 -5.68753 -11.5236 0 
842 1 -4.56374 -11.4675 0 
844 1 -3.43873 -11.418 0 
846 1 -2.31153 -11.3743 0 
848 1 -1.18832 -11.3259 0 
850 1 -0.0618621 -11.2866 0 
852 1 1.06367 -11.2464 0 
855 1 2.76956 -12.1878 0 
854 1 2.1872 -11.211 0 
857 1 3.89618 -12.1575 0 
856 1 3.31206 -11.1828 0 
859 1 5.02157 -12.1298 0 
858 1 4.43746 -11.1532 0 
861 1 6.14878 -12.1035 0 
860 1 5.56435 -11.128 0 
863 1 7.27573 -12.0765 0 
862 1 6.69088 -11.1005 0 
865 1 8.40275 -12.0515 0 
864 1 7.81908 -11.0755 0 
867 1 9.53145 -12.027 0 
869 1 10.6595 -12.0047 0 
871 1 11.7877 -11.9822 0 
873 1 12.9147 -11.9643 0 
875 1 14.0418 -11.9472 0 
877 1 15.1702 -11.9326 0 
879 1 16.2985 -11.9152 0 
881 1 17.4283 -11.9013 0 
883 1 18.5563 -11.8865 0 
885 1 19.6845 -11.8737 0 
887 1 20.8132 -11.8609 0 
889 1 21.9425 -11.8488 0 
891 1 23.0703 -11.8355 0 
893 1 24.1969 -11.8222 0 
895 2 25.3239 -11.8103 0 
897 2 26.4549 -11.8064 0 
899 2 27.586 -11.8028 0 
902 2 -27.2202 -10.5209 0 
904 2 -26.0925 -10.4842 0 
906 2 -24.9646 -10.4468 0 
908 1 -23.8348 -10.4033 0 
910 1 -22.7035 -10.3564 0 
912 1 -21.5725 -10.3104 0 
914 1 -20.4413 -10.2645 0 
916 1 -19.3097 -10.2196 0 
918 1 -18.1766 -10.1728 0 
920 1 -17.0439 -10.1272 0 
922 1 -15.9118 -10.0779 0 
924 1 -14.7801 -10.0241 0 
925 1 -14.1836 -10.9686 0 
926 1 -13.6471 -9.96858 0 
927 1 -13.0519 -10.9148 0 
928 1 -12.5142 -9.91147 0 
929 1 -11.9212 -10.8588 0 
930 1 -11.3824 -9.85369 0 
931 1 -10.7902 -10.8013 0 
933 1 -9.65917 -10.7403 0 
935 1 -8.5297 -10.6802 0 
937 1 -7.40141 -10.621 0 
939 1 -6.2742 -10.5642 0 
941 1 -5.14865 -10.5067 0 
943 1 -4.02277 -10.4533 0 
945 1 -2.89746 -10.4067 0 
947 1 -1.77483 -10.3573 0 
949 1 -0.647609 -10.3175 0 
951 1 0.477518 -10.2748 0 
953 1 1.6031 -10.2357 0 
955 1 2.72896 -10.2047 0 
957 1 3.85348 -10.1764 0 
959 1 4.97947 -10.1512 0 
961 1 6.10697 -10.1236 0 
963 1 7.23674 -10.0991 0 
965 1 8.36609 -10.0739 0 
866 1 8.94692 -11.0511 0 
967 1 9.49603 -10.052 0 
868 1 10.0761 -11.0278 0 
969 1 10.6254 -10.0291 0 
870 1 11.2051 -11.0052 0 
971 1 11.7553 -10.0079 0 
872 1 12.3346 -10.9856 0 
973 1 12.8839 -9.98864 0 
874 1 13.463 -10.9679 0 
975 1 14.0131 -9.97358 0 
876 1 14.5923 -10.9526 0 
977 1 15.1425 -9.95631 0 
878 1 15.7197 -10.9372 0 
979 1 16.2717 -9.94342 0 
880 1 16.8485 -10.9233 0 
981 1 17.3993 -9.9295 0 
882 1 17.9775 -10.9072 0 
983 1 18.528 -9.91558 0 
884 1 19.1083 -10.8946 0 
985 1 19.659 -9.90314 0 
886 1 20.2379 -10.8814 0 
987 1 20.7898 -9.88974 0 
888 1 21.3657 -10.8701 0 
890 1 22.4934 -10.8566 0 
989 1 21.917 -9.87812 0 
892 1 23.621 -10.8439 0 
991 1 23.0452 -9.865 0 
894 1 24.7494 -10.8312 0 
993 1 24.174 -9.85378 0 
896 2 25.8793 -10.8234 0 
995 2 25.3037 -9.84035 0 
898 2 27.0108 -10.8201 0 
997 2 26.4357 -9.83726 0 
900 2 28.1423 -10.817 0 
999 2 27.5677 -9.8344 0 
1001 2 -27.8125 -9.56805 0 
1003 2 -26.6854 -9.5318 0 
1005 2 -25.5581 -9.49477 0 
1007 2 -24.4305 -9.45693 0 
1009 1 -23.2999 -9.41024 0 
1011 1 -22.1693 -9.36426 0 
1013 1 -21.0385 -9.31834 0 
1015 1 -19.9057 -9.27207 0 
1017 1 -18.7731 -9.22708 0 
1019 1 -17.6403 -9.18017 0 
1021 1 -16.5083 -9.13084 0 
1023 1 -15.3761 -9.07826 0 
1025 1 -14.2438 -9.02486 0 
1027 1 -13.1108 -8.96791 0 
1029 1 -11.9779 -8.9094 0 
932 1 -10.2514 -9.79285 0 
1031 1 -10.8468 -8.84866 0 
934 1 -9.12159 -9.72981 0 
1033 1 -9.71624 -8.78374 0 
936 1 -7.99298 -9.66834 0 
1035 1 -8.58542 -8.71854 0 
938 1 -6.86375 -9.60745 0 
940 1 -5.7367 -9.54889 0 
942 1 -4.60943 -9.49179 0 
944 1 -3.48349 -9.43856 0 
946 1 -2.35993 -9.38614 0 
948 1 -1.23434 -9.3465 0 
950 1 -0.110847 -9.30321 0 
952 1 1.01521 -9.26247 0 
954 1 2.14165 -9.22765 0 
956 1 3.26793 -9.1967 0 
958 1 4.3962 -9.17109 0 
960 1 5.52395 -9.14517 0 
962 1 6.65308 -9.12166 0 
964 1 7.78153 -9.09725 0 
966 1 8.91195 -9.07434 0 
968 1 10.0423 -9.05233 0 
970 1 11.1731 -9.03088 0 
972 1 12.3033 -9.01089 0 
974 1 13.4319 -8.99306 0 
976 1 14.5601 -8.97677 0 
978 1 15.6903 -8.96222 0 
980 1 16.8221 -8.94962 0 
982 1 17.9524 -8.9364 0 
984 1 19.0817 -8.92408 0 
986 1 20.2107 -8.91109 0 
988 1 21.3402 -8.89908 0 
990 1 22.4699 -8.88749 0 
992 1 23.6011 -8.87486 0 
994 1 24.7316 -8.86283 0 
996 2 25.8608 -8.85435 0 
998 2 26.9933 -8.85174 0 
1000 2 28.1257 -8.84931 0 
1002 2 -27.2783 -8.57905 0 
1101 2 -27.8711 -7.62598 0 
1004 2 -26.1516 -8.54247 0 
1103 2 -26.7449 -7.58983 0 
1006 2 -25.0246 -8.50509 0 
1105 2 -25.6186 -7.5529 0 
1008 1 -23.8955 -8.46285 0 
1107 2 -24.492 -7.51516 0 
1010 1 -22.7664 -8.41789 0 
1012 1 -21.6362 -8.37223 0 
1014 1 -20.5048 -8.3272 0 
1016 1 -19.3723 -8.28091 0 
1018 1 -18.2411 -8.23437 0 
1020 1 -17.109 -8.18475 0 
1022 1 -15.9752 -8.13314 0 
1024 1 -14.8426 -8.08031 0 
1026 1 -13.7103 -8.02569 0 
1028 1 -12.5768 -7.96769 0 
1030 1 -11.4438 -7.9064 0 
1032 1 -10.312 -7.84195 0 
1034 1 -9.18052 -7.77428 0 
1036 1 -8.04654 -7.70916 0 
1037 1 -7.45391 -8.65601 0 
1038 1 -6.91341 -7.6424 0 
1039 1 -6.32389 -8.59363 0 
1041 1 -5.19563 -8.53301 0 
1043 1 -4.07072 -8.47237 0 
1045 1 -2.94816 -8.41743 0 
1047 1 -1.82026 -8.37265 0 
1049 1 -0.697016 -8.32559 0 
1051 1 0.428082 -8.28769 0 
1053 1 1.5545 -8.25107 0 
1055 1 2.68108 -8.21817 0 
1057 1 3.81027 -8.19158 0 
1059 1 4.93989 -8.16552 0 
1061 1 6.07041 -8.14138 0 
1063 1 7.19849 -8.11791 0 
1065 1 8.32804 -8.0971 0 
1067 1 9.45865 -8.07444 0 
1069 1 10.5884 -8.05352 0 
1071 1 11.7199 -8.03388 0 
1073 1 12.8503 -8.01362 0 
1075 1 13.9804 -7.99647 0 
1077 1 15.1106 -7.98166 0 
1079 1 16.2409 -7.96947 0 
1081 1 17.3716 -7.95617 0 
1083 1 18.5041 -7.94556 0 
1085 1 19.6353 -7.93217 0 
1087 1 20.766 -7.92011 0 
1089 1 21.8958 -7.90896 0 
1091 1 23.0265 -7.89735 0 
1093 1 24.1567 -7.88495 0 
1095 2 25.2861 -7.87134 0 
1097 2 26.419 -7.86899 0 
1099 2 27.5519 -7.8668 0 
1102 2 -27.3381 -6.63684 0 
1104 2 -26.2124 -6.60035 0 
1106 2 -25.0865 -6.56307 0 
1108 1 -23.9596 -6.52227 0 
1109 1 -23.3629 -7.46962 0 
1110 1 -22.8315 -6.47689 0 
1111 1 -22.234 -7.42528 0 
1112 1 -21.7033 -6.43207 0 
1113 1 -21.1043 -7.38035 0 
1114 1 -20.5745 -6.38765 0 
1115 1 -19.9738 -7.33509 0 
1116 1 -19.4442 -6.34234 0 
1117 1 -18.8426 -7.2885 0 
1119 1 -17.7111 -7.24041 0 
1121 1 -16.5782 -7.19058 0 
1123 1 -15.4451 -7.13695 0 
1125 1 -14.3129 -7.08336 0 
1127 1 -13.18 -7.02678 0 
1129 1 -12.0465 -6.96605 0 
1131 1 -10.9128 -6.90141 0 
1133 1 -9.7792 -6.83253 0 
1135 1 -8.64426 -6.76446 0 
1137 1 -7.51198 -6.69491 0 
1139 1 -6.38125 -6.62435 0 
1040 1 -5.78395 -7.5767 0 
1141 1 -5.2522 -6.55512 0 
1042 1 -4.65819 -7.51168 0 
1143 1 -4.12696 -6.48709 0 
1044 1 -3.53408 -7.44954 0 
1046 1 -2.40757 -7.40234 0 
1048 1 -1.28572 -7.34992 0 
1050 1 -0.159905 -7.31099 0 
1052 1 0.965638 -7.27392 0 
1054 1 2.09217 -7.24031 0 
1056 1 3.22104 -7.21171 0 
1058 1 4.35 -7.18611 0 
1060 1 5.47988 -7.16417 0 
1062 1 6.61099 -7.13838 0 
1064 1 7.74215 -7.11732 0 
1066 1 8.87293 -7.09592 0 
1068 1 10.0044 -7.07608 0 
1070 1 11.1358 -7.05708 0 
1072 1 12.268 -7.0367 0 
1074 1 13.4005 -7.01778 0 
1076 1 14.5319 -7.00165 0 
1078 1 15.6649 -6.98975 0 
1080 1 16.7965 -6.97674 0 
1082 1 17.9281 -6.96511 0 
1084 1 19.0587 -6.9531 0 
1086 1 20.1901 -6.94106 0 
1088 1 21.3225 -6.92967 0 
1090 1 22.4541 -6.91899 0 
1092 1 23.5846 -6.90643 0 
1094 1 24.7146 -6.89343 0 
1096 2 25.8451 -6.88616 0 
1098 2 26.9784 -6.88422 0 
1100 2 28.1116 -6.88241 0 
1201 2 -27.9311 -5.68349 0 
1203 2 -26.806 -5.64742 0 