ITEM: TIMESTEP
900
ITEM: NUMBER OF ATOMS
2850
ITEM: BOX BOUNDS ff ff pp
-42.092 42.092
-42.092 42.092
-0.280613 0.280613
ITEM: ATOMS id type xu yu zu 
1 2 -27.3398 -28.9988 0 
3 2 -26.2107 -28.9642 0 
5 2 -25.0816 -28.9291 0 
7 2 -23.9525 -28.8936 0 
9 2 -22.8235 -28.8577 0 
11 2 -21.6944 -28.8213 0 
13 2 -20.5655 -28.7844 0 
15 2 -19.4366 -28.7472 0 
17 2 -18.3079 -28.7095 0 
19 2 -17.1793 -28.6715 0 
21 2 -16.0508 -28.6331 0 
23 2 -14.9226 -28.5944 0 
25 2 -13.7947 -28.5554 0 
27 2 -12.667 -28.5163 0 
29 2 -11.5396 -28.477 0 
31 2 -10.4126 -28.4376 0 
33 2 -9.28592 -28.3982 0 
35 2 -8.15967 -28.3589 0 
37 2 -7.03386 -28.3198 0 
39 2 -5.90848 -28.281 0 
2 2 -26.7941 -28.0086 0 
4 2 -25.6649 -27.9736 0 
6 2 -24.5357 -27.9381 0 
8 2 -23.4065 -27.902 0 
10 2 -22.2773 -27.8656 0 
12 2 -21.1481 -27.8286 0 
14 2 -20.019 -27.7912 0 
16 2 -18.89 -27.7533 0 
18 2 -17.7611 -27.715 0 
20 2 -16.6324 -27.6763 0 
22 2 -15.5039 -27.6373 0 
24 2 -14.3755 -27.5979 0 
26 2 -13.2475 -27.5582 0 
28 2 -12.1197 -27.5183 0 
30 2 -10.9923 -27.4783 0 
32 2 -9.86522 -27.4382 0 
34 2 -8.73856 -27.3981 0 
36 2 -7.61233 -27.3581 0 
38 2 -6.48656 -27.3184 0 
40 2 -5.36126 -27.2789 0 
41 2 -4.78357 -28.2426 0 
42 2 -4.23645 -27.24 0 
43 2 -3.65912 -28.2046 0 
44 2 -3.11213 -27.2015 0 
45 2 -2.53513 -28.1673 0 
46 2 -1.98828 -27.1638 0 
47 2 -1.41159 -28.1307 0 
48 2 -0.8649 -27.1269 0 
49 2 -0.288464 -28.095 0 
51 2 0.834263 -28.0602 0 
53 2 1.95663 -28.0264 0 
55 2 3.07869 -27.9937 0 
57 2 4.20048 -27.9622 0 
59 2 5.32207 -27.9319 0 
61 2 6.4435 -27.9029 0 
63 2 7.56483 -27.8752 0 
65 2 8.68613 -27.8488 0 
67 2 9.80743 -27.8237 0 
69 2 10.9288 -27.8 0 
71 2 12.0503 -27.7775 0 
73 2 13.1719 -27.7563 0 
75 2 14.2937 -27.7363 0 
77 2 15.4157 -27.7174 0 
79 2 16.538 -27.6997 0 
81 2 17.6605 -27.683 0 
83 2 18.7832 -27.6673 0 
85 2 19.9063 -27.6526 0 
87 2 21.0296 -27.6388 0 
89 2 22.1532 -27.6258 0 
91 2 23.2771 -27.6136 0 
93 2 24.4012 -27.6022 0 
95 2 25.5256 -27.5914 0 
97 2 26.6503 -27.5812 0 
99 2 27.7752 -27.5717 0 
101 2 -27.378 -27.0533 0 
103 2 -26.2487 -27.0183 0 
102 2 -26.833 -26.0633 0 
105 2 -25.1194 -26.9828 0 
104 2 -25.7037 -26.0278 0 
107 2 -23.9901 -26.9468 0 
106 2 -24.5742 -25.9918 0 
109 2 -22.8607 -26.9102 0 
108 1 -23.4432 -25.9537 0 
111 2 -21.7314 -26.8732 0 
113 2 -20.6021 -26.8357 0 
115 2 -19.4729 -26.7977 0 
117 2 -18.3437 -26.7591 0 
119 2 -17.2147 -26.7202 0 
121 2 -16.0858 -26.6808 0 
123 2 -14.9572 -26.641 0 
125 2 -13.8287 -26.6009 0 
127 2 -12.7006 -26.5605 0 
129 2 -11.5727 -26.5198 0 
131 2 -10.4452 -26.479 0 
133 2 -9.31813 -26.4382 0 
135 2 -8.19146 -26.3973 0 
137 2 -7.06526 -26.3566 0 
139 2 -5.93954 -26.3162 0 
141 2 -4.81433 -26.2762 0 
143 2 -3.68963 -26.2366 0 
145 2 -2.56545 -26.1977 0 
147 2 -1.44177 -26.1596 0 
50 2 0.258046 -27.0909 0 
149 2 -0.318563 -26.1224 0 
52 2 1.38059 -27.056 0 
151 2 0.804196 -26.0862 0 
54 2 2.50279 -27.0222 0 
153 2 1.92656 -26.0512 0 
56 2 3.62468 -26.9896 0 
155 2 3.04857 -26.0174 0 
58 2 4.74633 -26.9582 0 
157 2 4.1703 -25.9849 0 
60 2 5.86779 -26.9282 0 
159 2 5.2918 -25.9538 0 
62 2 6.98913 -26.8996 0 
64 2 8.11041 -26.8723 0 
66 2 9.23169 -26.8465 0 
68 2 10.353 -26.822 0 
70 2 11.4745 -26.7989 0 
72 2 12.596 -26.7771 0 
74 2 13.7178 -26.7566 0 
76 2 14.8398 -26.7373 0 
78 2 15.962 -26.7192 0 
80 2 17.0845 -26.7023 0 
82 2 18.2073 -26.6863 0 
84 2 19.3304 -26.6714 0 
86 2 20.4538 -26.6575 0 
88 2 21.5774 -26.6444 0 
90 2 22.7014 -26.6321 0 
92 2 23.8256 -26.6206 0 
94 2 24.9501 -26.6098 0 
96 2 26.0749 -26.5996 0 
98 2 27.2 -26.5901 0 
100 2 28.3253 -26.5811 0 
201 2 -27.4179 -25.1085 0 
203 2 -26.2885 -25.0731 0 
205 2 -25.159 -25.0372 0 
207 2 -24.0295 -25.0007 0 
209 1 -22.897 -24.9626 0 
110 1 -22.3123 -25.9163 0 
211 1 -21.7652 -24.9218 0 
112 1 -21.1817 -25.8766 0 
213 1 -20.6336 -24.88 0 
114 1 -20.0511 -25.8373 0 
215 1 -19.5027 -24.8403 0 
116 1 -18.9213 -25.7996 0 
217 1 -18.3744 -24.801 0 
118 1 -17.7939 -25.7618 0 
120 1 -16.6663 -25.7228 0 
122 1 -15.5359 -25.6818 0 
124 1 -14.4056 -25.6404 0 
126 1 -13.2772 -25.5989 0 
128 1 -12.1492 -25.5578 0 
130 1 -11.0209 -25.5149 0 
132 1 -9.89364 -25.4723 0 
134 1 -8.76712 -25.4321 0 
136 1 -7.63987 -25.3918 0 
138 1 -6.51312 -25.3488 0 
140 1 -5.38778 -25.3066 0 
142 1 -4.2631 -25.2657 0 
144 1 -3.13969 -25.2246 0 
146 1 -2.01756 -25.1859 0 
148 1 -0.895034 -25.1487 0 
150 1 0.227463 -25.1104 0 
152 1 1.34936 -25.0747 0 
154 1 2.47104 -25.0405 0 
156 1 3.59305 -25.0058 0 
158 1 4.7157 -24.9726 0 
160 1 5.83786 -24.9406 0 
161 2 6.41316 -25.9242 0 
162 1 6.95871 -24.911 0 
163 2 7.53443 -25.896 0 
164 1 8.07916 -24.8837 0 
165 2 8.65568 -25.8693 0 
167 2 9.77697 -25.844 0 
166 1 9.20083 -24.86 0 
169 2 10.8984 -25.8202 0 
168 1 10.3233 -24.8383 0 
171 2 12.0199 -25.7978 0 
170 1 11.4453 -24.8163 0 
173 2 13.1416 -25.7768 0 
172 1 12.5668 -24.7953 0 
175 2 14.2636 -25.7571 0 
177 2 15.3858 -25.7386 0 
179 2 16.5083 -25.7213 0 
181 2 17.6311 -25.7052 0 
183 2 18.7543 -25.6901 0 
185 2 19.8777 -25.6759 0 
187 2 21.0014 -25.6627 0 
189 2 22.1254 -25.6504 0 
191 2 23.2498 -25.6388 0 
193 2 24.3744 -25.628 0 
195 2 25.4993 -25.6179 0 
197 2 26.6245 -25.6084 0 
199 2 27.75 -25.5994 0 
202 2 -26.8739 -24.1187 0 
204 2 -25.7444 -24.0828 0 
206 2 -24.6148 -24.0464 0 
208 1 -23.4845 -24.0096 0 
210 1 -22.3536 -23.9701 0 
212 1 -21.2208 -23.9265 0 
214 1 -20.088 -23.8831 0 
216 1 -18.957 -23.8419 0 
219 1 -17.2463 -24.7632 0 
218 1 -17.8267 -23.8035 0 
221 1 -16.1157 -24.725 0 
220 1 -16.6969 -23.766 0 
222 1 -15.5686 -23.7249 0 
223 1 -14.9848 -24.6822 0 
224 1 -14.439 -23.6817 0 
225 1 -13.8562 -24.6386 0 
226 1 -13.3087 -23.6377 0 
227 1 -12.7294 -24.5971 0 
229 1 -11.6016 -24.5557 0 
231 1 -10.4726 -24.5105 0 
233 1 -9.34481 -24.4661 0 
235 1 -8.21831 -24.4257 0 
237 1 -7.09144 -24.3834 0 
239 1 -5.96444 -24.3376 0 
241 1 -4.83969 -24.294 0 
243 1 -3.71682 -24.252 0 
245 1 -2.59416 -24.2121 0 
247 1 -1.47211 -24.1748 0 
249 1 -0.350908 -24.1361 0 
251 1 0.770574 -24.0976 0 
253 1 1.89157 -24.0617 0 
255 1 3.01323 -24.0274 0 
257 1 4.13681 -23.9932 0 
259 1 5.25966 -23.9595 0 
261 1 6.38141 -23.9292 0 
263 1 7.5029 -23.9013 0 
265 1 8.62445 -23.8759 0 
267 1 9.74508 -23.8536 0 
269 1 10.8658 -23.8327 0 
271 1 11.9883 -23.8119 0 
273 1 13.1117 -23.7918 0 
174 1 13.6884 -24.7756 0 
275 1 14.2352 -23.7749 0 
176 1 14.8112 -24.7577 0 
277 1 15.3569 -23.7557 0 
178 1 15.9344 -24.7374 0 
279 1 16.4797 -23.737 0 
180 1 17.0586 -24.7193 0 
281 1 17.6044 -23.7213 0 
182 1 18.1838 -24.704 0 
283 1 18.7296 -23.7058 0 
184 1 19.3077 -24.6894 0 
285 1 19.8536 -23.69 0 
186 1 20.4289 -24.6766 0 
287 1 20.9765 -23.6774 0 
188 1 21.55 -24.666 0 
289 1 22.1003 -23.6731 0 
190 1 22.6749 -24.6589 0 
291 1 23.2252 -23.6694 0 
192 1 23.8025 -24.6489 0 
293 1 24.3498 -23.6579 0 
194 1 24.9273 -24.6368 0 
295 2 25.4729 -23.6443 0 
196 2 26.0488 -24.6264 0 
198 2 27.1745 -24.6176 0 
200 2 28.3003 -24.6093 0 
301 2 -27.4598 -23.1644 0 
303 2 -26.3303 -23.1287 0 
305 2 -25.2007 -23.0924 0 
307 2 -24.071 -23.0555 0 
309 1 -22.9397 -23.0163 0 
311 1 -21.8089 -22.9742 0 
313 1 -20.6769 -22.9291 0 
315 1 -19.5436 -22.8867 0 
317 1 -18.4109 -22.8467 0 
319 1 -17.2809 -22.8069 0 
321 1 -16.1533 -22.7654 0 
323 1 -15.0243 -22.7244 0 
325 1 -13.8936 -22.6819 0 
327 1 -12.7627 -22.6372 0 
228 1 -12.1801 -23.5955 0 
329 1 -11.6341 -22.59 0 
230 1 -11.0536 -23.5512 0 
331 1 -10.5064 -22.5447 0 
232 1 -9.92589 -23.5048 0 
333 1 -9.37758 -22.5001 0 
234 1 -8.79626 -23.46 0 
236 1 -7.66896 -23.417 0 
238 1 -6.54443 -23.3721 0 
240 1 -5.41996 -23.3258 0 
242 1 -4.29572 -23.2817 0 
244 1 -3.17212 -23.2407 0 
246 1 -2.04953 -23.2011 0 
248 1 -0.928703 -23.1619 0 
250 1 0.191817 -23.1231 0 
252 1 1.31279 -23.085 0 
254 1 2.43452 -23.0499 0 
256 1 3.55649 -23.0164 0 
258 1 4.6779 -22.9813 0 
260 1 5.79977 -22.9494 0 
262 1 6.92176 -22.9212 0 
264 1 8.04387 -22.8948 0 
266 1 9.16627 -22.8694 0 
268 1 10.2885 -22.8471 0 
270 1 11.4101 -22.827 0 
272 1 12.5333 -22.8071 0 
274 1 13.659 -22.7898 0 
276 1 14.7835 -22.7725 0 
278 1 15.9068 -22.756 0 
280 1 17.0292 -22.7399 0 
282 1 18.1512 -22.7244 0 
284 1 19.2739 -22.708 0 
286 1 20.3991 -22.6927 0 
288 1 21.526 -22.6835 0 
290 1 22.6505 -22.6809 0 
292 1 23.7721 -22.6757 0 
294 1 24.8958 -22.6647 0 
297 2 26.5987 -23.6355 0 
296 2 26.0228 -22.6533 0 
299 2 27.7248 -23.6273 0 
298 2 27.149 -22.6452 0 
300 2 28.2755 -22.6376 0 
302 2 -26.9167 -22.1747 0 
304 2 -25.7871 -22.1385 0 
306 2 -24.6574 -22.1018 0 
308 1 -23.5269 -22.0634 0 
310 1 -22.3955 -22.0213 0 
312 1 -21.2639 -21.9766 0 
314 1 -20.131 -21.9339 0 
316 1 -18.9986 -21.8925 0 
318 1 -17.8673 -21.8505 0 
320 1 -16.7375 -21.8073 0 
322 1 -15.6073 -21.7652 0 
324 1 -14.4775 -21.7232 0 
326 1 -13.3485 -21.6796 0 
328 1 -12.2201 -21.6328 0 
330 1 -11.0906 -21.586 0 
332 1 -9.96195 -21.541 0 
334 1 -8.83564 -21.4944 0 
335 1 -8.2493 -22.4538 0 
336 1 -7.71012 -21.446 0 
337 1 -7.12431 -22.4071 0 
338 1 -6.58418 -21.399 0 
339 1 -6.00069 -22.3619 0 
340 1 -5.45935 -21.353 0 
341 1 -4.87598 -22.317 0 
342 1 -4.33661 -21.307 0 
343 1 -3.75169 -22.2724 0 
345 1 -2.62951 -22.23 0 
347 1 -1.50832 -22.1898 0 
349 1 -0.386992 -22.1502 0 
351 1 0.733377 -22.1106 0 
353 1 1.85403 -22.0751 0 
355 1 2.97539 -22.0414 0 
357 1 4.09552 -22.0057 0 
359 1 5.21547 -21.9718 0 
361 1 6.33601 -21.9409 0 
363 1 7.45758 -21.9129 0 
365 1 8.58014 -21.8876 0 
367 1 9.70476 -21.8647 0 
369 1 10.8299 -21.8419 0 
371 1 11.9539 -21.8218 0 
373 1 13.0791 -21.8056 0 
375 1 14.2064 -21.7893 0 
377 1 15.3339 -21.7735 0 
379 1 16.4591 -21.7577 0 
381 1 17.5811 -21.7417 0 
383 1 18.7006 -21.7256 0 
385 1 19.8221 -21.711 0 
387 1 20.947 -21.6995 0 
389 1 22.0741 -21.6919 0 
391 1 23.1982 -21.6865 0 
393 1 24.3218 -21.6808 0 
395 2 25.4466 -21.6709 0 
397 2 26.573 -21.6629 0 
399 2 27.6998 -21.6554 0 
401 2 -27.5037 -21.2208 0 
403 2 -26.3741 -21.1849 0 
402 2 -26.9617 -20.2313 0 
405 2 -25.2445 -21.1483 0 
404 2 -25.8321 -20.1949 0 
407 2 -24.1147 -21.111 0 
409 1 -22.9832 -21.0693 0 
411 1 -21.8523 -21.0257 0 
413 1 -20.7202 -20.9825 0 
415 1 -19.5871 -20.9391 0 
417 1 -18.454 -20.896 0 
419 1 -17.3228 -20.8517 0 
421 1 -16.1926 -20.8083 0 
423 1 -15.063 -20.7647 0 
425 1 -13.9338 -20.7205 0 
427 1 -12.8054 -20.6752 0 
429 1 -11.6767 -20.6299 0 
431 1 -10.5478 -20.5826 0 
433 1 -9.42059 -20.5345 0 
435 1 -8.29444 -20.4857 0 
437 1 -7.16889 -20.4376 0 
439 1 -6.04501 -20.3899 0 
441 1 -4.92218 -20.3416 0 
344 1 -3.21407 -21.2621 0 
443 1 -3.7991 -20.2956 0 
346 1 -2.09125 -21.22 0 
445 1 -2.67562 -20.2522 0 
348 1 -0.969544 -21.1798 0 
447 1 -1.55321 -20.2085 0 
350 1 0.150717 -21.138 0 
449 1 -0.432763 -20.1651 0 
352 1 1.27177 -21.0992 0 
354 1 2.39278 -21.0652 0 
356 1 3.51279 -21.0306 0 
358 1 4.63273 -20.9951 0 
360 1 5.75241 -20.9606 0 
362 1 6.87249 -20.9308 0 
364 1 7.99375 -20.9047 0 
366 1 9.11698 -20.8823 0 
368 1 10.2419 -20.8605 0 
370 1 11.3688 -20.8387 0 
372 1 12.4956 -20.8212 0 
374 1 13.6224 -20.8074 0 
376 1 14.75 -20.7916 0 
378 1 15.8782 -20.7756 0 
380 1 17.0045 -20.7595 0 
382 1 18.1277 -20.7424 0 
384 1 19.2489 -20.7289 0 
386 1 20.371 -20.7157 0 
388 1 21.4945 -20.7068 0 
390 1 22.6181 -20.696 0 
392 1 23.742 -20.6925 0 
394 1 24.8686 -20.6869 0 
396 2 25.9969 -20.6804 0 
398 2 27.1238 -20.673 0 
400 2 28.251 -20.6661 0 
501 2 -27.5497 -19.2779 0 
503 2 -26.4202 -19.2417 0 
505 2 -25.2906 -19.2049 0 
406 2 -24.7023 -20.1579 0 
507 2 -24.1608 -19.1673 0 
408 1 -23.5702 -20.1171 0 
509 1 -23.0283 -19.1225 0 
410 1 -22.4396 -20.0739 0 
511 1 -21.8963 -19.0783 0 
412 1 -21.3092 -20.0311 0 
414 1 -20.177 -19.9873 0 
513 1 -20.7647 -19.0348 0 
416 1 -19.0435 -19.9426 0 
418 1 -17.9111 -19.8972 0 
420 1 -16.7801 -19.8532 0 
422 1 -15.6502 -19.8089 0 
424 1 -14.5209 -19.7636 0 
426 1 -13.3919 -19.718 0 
428 1 -12.2626 -19.6725 0 
430 1 -11.1333 -19.6251 0 
432 1 -10.0049 -19.5749 0 
434 1 -8.87792 -19.5249 0 
436 1 -7.75181 -19.4762 0 
438 1 -6.62787 -19.4264 0 
440 1 -5.50604 -19.3776 0 
442 1 -4.38303 -19.3302 0 
444 1 -3.25949 -19.2834 0 
446 1 -2.1375 -19.2369 0 
448 1 -1.01596 -19.1913 0 
450 1 0.106246 -19.1491 0 
451 1 0.688846 -20.1249 0 
452 1 1.22758 -19.1097 0 
453 1 1.81163 -20.087 0 
454 1 2.34895 -19.0724 0 
455 1 2.93251 -20.0512 0 
456 1 3.47004 -19.0373 0 
457 1 4.05209 -20.0173 0 
458 1 4.5907 -19.0032 0 
459 1 5.17263 -19.9827 0 
461 1 6.2948 -19.9498 0 
463 1 7.41585 -19.9213 0 
465 1 8.53623 -19.8984 0 
467 1 9.65787 -19.8775 0 
469 1 10.7831 -19.858 0 
471 1 11.9102 -19.838 0 
473 1 13.037 -19.8226 0 
475 1 14.1624 -19.809 0 
477 1 15.2906 -19.7944 0 
479 1 16.4185 -19.7776 0 
481 1 17.545 -19.7611 0 
483 1 18.6711 -19.746 0 
485 1 19.7952 -19.7334 0 
487 1 20.9196 -19.7218 0 
489 1 22.0422 -19.7103 0 
491 1 23.1671 -19.7014 0 
493 1 24.2922 -19.7018 0 
495 2 25.4205 -19.6978 0 
497 2 26.5477 -19.6905 0 
499 2 27.6751 -19.6838 0 
502 2 -27.0088 -18.2886 0 
504 2 -25.8793 -18.252 0 
506 2 -24.7497 -18.2147 0 
508 1 -23.6177 -18.1729 0 
510 1 -22.485 -18.1266 0 
512 1 -21.3525 -18.0813 0 
514 1 -20.2224 -18.036 0 
515 1 -19.6334 -18.9897 0 
516 1 -19.0917 -17.9918 0 
517 1 -18.5013 -18.9443 0 
518 1 -17.9603 -17.9469 0 
519 1 -17.3694 -18.8994 0 
520 1 -16.8299 -17.9003 0 
521 1 -16.2391 -18.8545 0 
522 1 -15.7007 -17.8529 0 
523 1 -15.1096 -18.8085 0 
525 1 -13.9793 -18.762 0 
527 1 -12.8491 -18.7155 0 
529 1 -11.7201 -18.6686 0 
531 1 -10.5922 -18.6177 0 
533 1 -9.46447 -18.5656 0 
535 1 -8.33737 -18.5148 0 
537 1 -7.21323 -18.4633 0 
539 1 -6.0905 -18.412 0 
541 1 -4.96833 -18.3636 0 
543 1 -3.84624 -18.3157 0 
545 1 -2.72363 -18.2663 0 
547 1 -1.6015 -18.2187 0 
549 1 -0.480487 -18.1749 0 
551 1 0.639964 -18.1332 0 
553 1 1.76138 -18.0953 0 
555 1 2.8823 -18.0584 0 
557 1 4.00245 -18.0229 0 
559 1 5.12426 -17.9901 0 
460 1 5.71315 -18.9704 0 
561 1 6.2478 -17.9576 0 
462 1 6.83642 -18.9389 0 
563 1 7.3723 -17.9289 0 
464 1 7.9584 -18.9131 0 
565 1 8.49544 -17.9058 0 
466 1 9.07853 -18.892 0 
567 1 9.61757 -17.8884 0 
468 1 10.2001 -18.8745 0 
569 1 10.7393 -17.8726 0 
470 1 11.3243 -18.8566 0 
472 1 12.4514 -18.8386 0 
474 1 13.5773 -18.8221 0 
476 1 14.7035 -18.8112 0 
478 1 15.8309 -18.796 0 
480 1 16.959 -18.7799 0 
482 1 18.087 -18.7645 0 
484 1 19.2156 -18.7498 0 
486 1 20.3431 -18.7384 0 
488 1 21.469 -18.7265 0 
490 1 22.5944 -18.7182 0 
492 1 23.7214 -18.7124 0 
494 1 24.8453 -18.7126 0 
496 2 25.9714 -18.7078 0 
498 2 27.0991 -18.7012 0 
500 2 28.2271 -18.6951 0 
601 2 -27.5979 -17.3354 0 
603 2 -26.4686 -17.2992 0 
605 2 -25.3391 -17.2621 0 
607 2 -24.2094 -17.2244 0 
609 1 -23.076 -17.1768 0 
611 1 -21.9428 -17.1299 0 
613 1 -20.8117 -17.0826 0 
615 1 -19.6822 -17.0379 0 
617 1 -18.5525 -16.9937 0 
619 1 -17.4221 -16.948 0 
621 1 -16.2903 -16.8995 0 
524 1 -14.5698 -17.8073 0 
623 1 -15.1574 -16.8528 0 
526 1 -13.438 -17.7608 0 
625 1 -14.0255 -16.8064 0 
528 1 -12.3076 -17.7123 0 
627 1 -12.8958 -16.758 0 
530 1 -11.1805 -17.6617 0 
629 1 -11.7666 -16.7053 0 
532 1 -10.0529 -17.6098 0 
534 1 -8.92554 -17.5561 0 
536 1 -7.80016 -17.5008 0 
538 1 -6.67731 -17.4471 0 
540 1 -5.55475 -17.3971 0 
542 1 -4.43108 -17.3473 0 
544 1 -3.30888 -17.2974 0 
546 1 -2.18747 -17.2481 0 
548 1 -1.06622 -17.2007 0 
550 1 0.0547371 -17.1571 0 
552 1 1.17641 -17.1185 0 
554 1 2.29679 -17.08 0 
556 1 3.41713 -17.0424 0 
558 1 4.53801 -17.009 0 
560 1 5.65915 -16.9772 0 
562 1 6.78371 -16.9475 0 
564 1 7.91003 -16.9211 0 
566 1 9.0346 -16.9015 0 
568 1 10.1568 -16.8863 0 
571 1 11.8638 -17.858 0 
570 1 11.2806 -16.8752 0 
573 1 12.9912 -17.8403 0 
572 1 12.4059 -16.8617 0 
575 1 14.1192 -17.8247 0 
574 1 13.5338 -16.8444 0 
577 1 15.2457 -17.8121 0 
576 1 14.6624 -16.828 0 
579 1 16.3735 -17.7984 0 
578 1 15.7911 -16.8149 0 
581 1 17.5015 -17.7826 0 
580 1 16.9207 -16.7991 0 
583 1 18.6311 -17.7677 0 
582 1 18.0497 -16.7846 0 
585 1 19.761 -17.7544 0 
584 1 19.1781 -16.771 0 
587 1 20.8892 -17.7445 0 
586 1 20.3068 -16.7625 0 
589 1 22.0153 -17.7364 0 
588 1 21.434 -16.7537 0 
591 1 23.1428 -17.731 0 
590 1 22.5622 -16.7506 0 
593 1 24.2689 -17.7241 0 
592 1 23.6906 -16.7416 0 
595 2 25.3948 -17.725 0 
594 1 24.819 -16.7385 0 
596 2 25.9465 -16.7357 0 
597 2 26.5229 -17.7186 0 
598 2 27.0751 -16.7299 0 
599 2 27.6512 -17.7126 0 
600 2 28.2039 -16.7246 0 
602 2 -27.0583 -16.3463 0 
604 2 -25.929 -16.3096 0 
606 2 -24.7995 -16.2721 0 
608 1 -23.6671 -16.2281 0 
610 1 -22.5349 -16.1806 0 
612 1 -21.4038 -16.1317 0 
614 1 -20.2734 -16.0843 0 
616 1 -19.143 -16.0392 0 
618 1 -18.0117 -15.9941 0 
620 1 -16.8795 -15.9491 0 
622 1 -15.7461 -15.9013 0 
624 1 -14.6137 -15.8534 0 
626 1 -13.4829 -15.8032 0 
628 1 -12.353 -15.7506 0 
630 1 -11.2231 -15.6947 0 
631 1 -10.6384 -16.6529 0 
632 1 -10.0949 -15.6392 0 
633 1 -9.51133 -16.5985 0 
634 1 -8.96922 -15.5815 0 
635 1 -8.38629 -16.5413 0 
636 1 -7.84375 -15.5243 0 
637 1 -7.26179 -16.4847 0 
639 1 -6.13674 -16.4322 0 
641 1 -5.01348 -16.3818 0 
643 1 -3.89155 -16.3287 0 
645 1 -2.76986 -16.2768 0 
647 1 -1.64843 -16.2272 0 
649 1 -0.526371 -16.1803 0 
651 1 0.595458 -16.1402 0 
653 1 1.71531 -16.1012 0 
655 1 2.8358 -16.0642 0 
657 1 3.95853 -16.0283 0 
659 1 5.08062 -15.9939 0 
661 1 6.2023 -15.9659 0 
663 1 7.32658 -15.9405 0 
665 1 8.45321 -15.9174 0 
667 1 9.57833 -15.9003 0 
669 1 10.7024 -15.8897 0 
671 1 11.8262 -15.8789 0 
673 1 12.9511 -15.8659 0 
675 1 14.0792 -15.8483 0 
677 1 15.2079 -15.832 0 
679 1 16.3365 -15.8181 0 
681 1 17.4663 -15.8015 0 
683 1 18.5964 -15.7885 0 
685 1 19.7256 -15.78 0 
687 1 20.8544 -15.7729 0 
689 1 21.9852 -15.7664 0 
691 1 23.1128 -15.761 0 
693 1 24.2405 -15.7537 0 
695 2 25.3699 -15.7527 0 
697 2 26.4989 -15.7471 0 
699 2 27.6281 -15.742 0 
701 2 -27.6483 -15.3934 0 
703 2 -26.5193 -15.357 0 
705 2 -25.3901 -15.3199 0 
707 2 -24.2607 -15.282 0 
709 1 -23.1277 -15.2334 0 
711 1 -21.9967 -15.1833 0 
713 1 -20.8653 -15.1337 0 
715 1 -19.7334 -15.0865 0 
717 1 -18.6008 -15.0406 0 
719 1 -17.4685 -14.9963 0 
721 1 -16.3366 -14.9506 0 
723 1 -15.2043 -14.9021 0 
725 1 -14.0723 -14.8502 0 
727 1 -12.9416 -14.7959 0 
729 1 -11.8115 -14.739 0 
731 1 -10.6815 -14.682 0 
733 1 -9.55245 -14.623 0 
735 1 -8.42598 -14.5634 0 
638 1 -6.71781 -15.4702 0 
737 1 -7.30147 -14.5068 0 
640 1 -5.59413 -15.4157 0 
739 1 -6.17703 -14.4513 0 
642 1 -4.4724 -15.3617 0 
741 1 -5.05335 -14.3947 0 
644 1 -3.35019 -15.3081 0 
743 1 -3.9305 -14.3401 0 
646 1 -2.22825 -15.2551 0 
648 1 -1.10759 -15.2056 0 
650 1 0.0135516 -15.163 0 
652 1 1.13384 -15.1233 0 
654 1 2.25475 -15.0852 0 
656 1 3.37663 -15.0492 0 
658 1 4.50071 -15.0145 0 
660 1 5.62531 -14.9824 0 
662 1 6.74822 -14.9574 0 
664 1 7.87278 -14.9372 0 
666 1 8.99966 -14.9176 0 
668 1 10.1255 -14.9032 0 
670 1 11.2511 -14.8924 0 
672 1 12.3755 -14.8806 0 
674 1 13.4999 -14.8689 0 
676 1 14.6274 -14.8521 0 
678 1 15.7558 -14.8361 0 
680 1 16.883 -14.8211 0 
682 1 18.0119 -14.8091 0 
684 1 19.1432 -14.7991 0 
686 1 20.274 -14.7912 0 
688 1 21.4041 -14.7832 0 
690 1 22.5337 -14.7758 0 
692 1 23.6608 -14.771 0 
694 1 24.7908 -14.767 0 
696 2 25.9226 -14.7642 0 
698 2 27.0521 -14.7592 0 
700 2 28.1818 -14.7547 0 
702 2 -27.11 -14.4044 0 
801 2 -27.7009 -13.4516 0 
704 2 -25.9811 -14.3676 0 
803 2 -26.5724 -13.4152 0 
706 2 -24.852 -14.3301 0 
805 2 -25.4437 -13.3781 0 
708 1 -23.7209 -14.2878 0 
807 2 -24.3146 -13.3401 0 
710 1 -22.5894 -14.2368 0 
809 1 -23.1832 -13.2903 0 
712 1 -21.457 -14.1868 0 
714 1 -20.3231 -14.1368 0 
716 1 -19.1899 -14.0898 0 
718 1 -18.058 -14.0432 0 
720 1 -16.9261 -13.998 0 
722 1 -15.7938 -13.9499 0 
724 1 -14.6625 -13.8983 0 
726 1 -13.5313 -13.842 0 
728 1 -12.4004 -13.7853 0 
730 1 -11.2681 -13.7274 0 
732 1 -10.1379 -13.6678 0 
734 1 -9.01118 -13.6044 0 
736 1 -7.88444 -13.5449 0 
738 1 -6.75875 -13.4875 0 
740 1 -5.6351 -13.4288 0 
742 1 -4.51222 -13.3718 0 
744 1 -3.39114 -13.3161 0 
745 1 -2.80861 -14.2859 0 
746 1 -2.2693 -13.2612 0 
747 1 -1.68791 -14.2334 0 
748 1 -1.14675 -13.21 0 
749 1 -0.566468 -14.1867 0 
751 1 0.553776 -14.1439 0 
753 1 1.67377 -14.1052 0 
755 1 2.79515 -14.0664 0 
757 1 3.91817 -14.0332 0 
759 1 5.04188 -14.003 0 
761 1 6.16716 -13.9743 0 
763 1 7.29278 -13.9529 0 
765 1 8.41827 -13.9355 0 
767 1 9.54501 -13.917 0 
769 1 10.672 -13.904 0 
771 1 11.7989 -13.8919 0 
773 1 12.925 -13.8823 0 
775 1 14.0491 -13.872 0 
777 1 15.1764 -13.8565 0 
779 1 16.306 -13.8401 0 
781 1 17.4344 -13.8283 0 
783 1 18.563 -13.8197 0 
785 1 19.6928 -13.8101 0 
787 1 20.8232 -13.801 0 
789 1 21.9531 -13.7924 0 
791 1 23.0824 -13.7852 0 
793 1 24.2148 -13.7849 0 
795 2 25.3462 -13.7811 0 
797 2 26.4761 -13.7764 0 
799 2 27.6062 -13.772 0 
802 2 -27.164 -12.4626 0 
804 2 -26.0357 -12.4259 0 
806 2 -24.9071 -12.3884 0 
808 1 -23.7773 -12.3438 0 
810 1 -22.6457 -12.2945 0 
811 1 -22.0516 -13.2412 0 
812 1 -21.5142 -12.2459 0 
813 1 -20.9182 -13.1915 0 
814 1 -20.3798 -12.197 0 
815 1 -19.7829 -13.1421 0 
816 1 -19.2453 -12.1481 0 
817 1 -18.65 -13.0943 0 
818 1 -18.1116 -12.0998 0 
819 1 -17.5165 -13.0466 0 
821 1 -16.3846 -12.9981 0 
823 1 -15.2536 -12.9463 0 
825 1 -14.1235 -12.8906 0 
827 1 -12.9907 -12.8334 0 
829 1 -11.8574 -12.7757 0 
831 1 -10.7266 -12.7138 0 
833 1 -9.59816 -12.6496 0 
835 1 -8.46872 -12.5884 0 
837 1 -7.34115 -12.5271 0 
839 1 -6.21602 -12.4654 0 
841 1 -5.09304 -12.4051 0 
843 1 -3.97023 -12.3463 0 
845 1 -2.84802 -12.2895 0 
847 1 -1.72584 -12.2349 0 
750 1 -0.0250591 -13.1639 0 
849 1 -0.604 -12.1846 0 
851 1 0.517728 -12.141 0 
752 1 1.09508 -13.1236 0 
853 1 1.63902 -12.1011 0 
754 1 2.21498 -13.0852 0 
855 1 2.76145 -12.0659 0 
756 1 3.33875 -13.0484 0 
758 1 4.46179 -13.0155 0 
760 1 5.58493 -12.9901 0 
762 1 6.71074 -12.9665 0 
764 1 7.83678 -12.9489 0 
766 1 8.96325 -12.9335 0 
768 1 10.0922 -12.9163 0 
770 1 11.2199 -12.9028 0 
772 1 12.3472 -12.8934 0 
774 1 13.4729 -12.8854 0 
776 1 14.5985 -12.8761 0 
778 1 15.7262 -12.8618 0 
780 1 16.8544 -12.8465 0 
782 1 17.983 -12.8383 0 
784 1 19.1124 -12.8291 0 
786 1 20.2437 -12.8195 0 
788 1 21.375 -12.8131 0 
790 1 22.5039 -12.8023 0 
792 1 23.6366 -12.7985 0 
794 1 24.7677 -12.7963 0 
796 2 25.9 -12.7934 0 
798 2 27.0306 -12.7893 0 
800 2 28.1612 -12.7854 0 
901 2 -27.7557 -11.5099 0 
903 2 -26.6279 -11.4735 0 
905 2 -25.4997 -11.4364 0 
907 2 -24.3713 -11.3985 0 
909 1 -23.24 -11.3487 0 
911 1 -22.1097 -11.2987 0 
913 1 -20.9781 -11.2516 0 
915 1 -19.8439 -11.203 0 
917 1 -18.7104 -11.1544 0 
820 1 -16.9786 -12.0484 0 
919 1 -17.5766 -11.1025 0 
822 1 -15.847 -11.9974 0 
921 1 -16.4432 -11.0499 0 
824 1 -14.7151 -11.9421 0 
923 1 -15.3106 -10.9973 0 
826 1 -13.5821 -11.8847 0 
925 1 -14.1779 -10.9402 0 
828 1 -12.4492 -11.826 0 
927 1 -13.0444 -10.88 0 
830 1 -11.3172 -11.7625 0 
832 1 -10.1854 -11.6974 0 
834 1 -9.0545 -11.6346 0 
836 1 -7.9259 -11.5714 0 
838 1 -6.79947 -11.5055 0 
840 1 -5.67283 -11.4414 0 
842 1 -4.54755 -11.3792 0 
844 1 -3.42484 -11.3195 0 
846 1 -2.30366 -11.2608 0 
848 1 -1.1847 -11.2043 0 
850 1 -0.0619878 -11.157 0 
852 1 1.06146 -11.1142 0 
854 1 2.18459 -11.0772 0 
857 1 3.88555 -12.0286 0 
856 1 3.30683 -11.0451 0 
859 1 5.00947 -11.9999 0 
858 1 4.432 -11.0155 0 
861 1 6.13163 -11.9784 0 
860 1 5.55642 -10.9885 0 
863 1 7.25789 -11.9592 0 
862 1 6.68022 -10.9716 0 
865 1 8.38403 -11.9448 0 
864 1 7.8052 -10.9536 0 
867 1 9.51154 -11.9324 0 
869 1 10.6415 -11.9162 0 
871 1 11.7698 -11.9043 0 
873 1 12.8961 -11.8955 0 
875 1 14.0228 -11.8883 0 
877 1 15.1502 -11.8799 0 
879 1 16.278 -11.8678 0 
881 1 17.4062 -11.8554 0 
883 1 18.5342 -11.8472 0 
885 1 19.6631 -11.8388 0 
887 1 20.7948 -11.8314 0 
889 1 21.9261 -11.8232 0 
891 1 23.0586 -11.8158 0 
893 1 24.1947 -11.8118 0 
895 2 25.3239 -11.8103 0 
897 2 26.4549 -11.8064 0 
899 2 27.586 -11.8028 0 
902 2 -27.2202 -10.5209 0 
904 2 -26.0925 -10.4842 0 
906 2 -24.9646 -10.4468 0 
908 1 -23.8346 -10.4031 0 
910 1 -22.7042 -10.3524 0 
912 1 -21.5729 -10.304 0 
914 1 -20.4408 -10.2576 0 
916 1 -19.3089 -10.2079 0 
918 1 -18.1767 -10.1577 0 
920 1 -17.0428 -10.1042 0 
922 1 -15.9087 -10.0525 0 
924 1 -14.7749 -9.99671 0 
926 1 -13.6421 -9.93682 0 
928 1 -12.5085 -9.8723 0 
929 1 -11.9104 -10.8156 0 
930 1 -11.3757 -9.80611 0 
931 1 -10.777 -10.7496 0 
932 1 -10.2448 -9.73891 0 
933 1 -9.64572 -10.6842 0 
935 1 -8.51676 -10.6184 0 
937 1 -7.38893 -10.5506 0 
939 1 -6.25978 -10.4836 0 
941 1 -5.1319 -10.4164 0 
943 1 -4.00636 -10.353 0 
945 1 -2.8873 -10.2896 0 
947 1 -1.76876 -10.2274 0 
949 1 -0.647594 -10.1773 0 
951 1 0.473297 -10.1315 0 
953 1 1.59583 -10.0908 0 
955 1 2.72078 -10.0543 0 
957 1 3.84471 -10.0276 0 
959 1 4.96866 -10.0033 0 
961 1 6.09706 -9.98422 0 
963 1 7.22473 -9.9663 0 
965 1 8.35321 -9.95058 0 
866 1 8.93246 -10.9414 0 
967 1 9.48092 -9.93583 0 
868 1 10.06 -10.9295 0 
969 1 10.6091 -9.92637 0 
870 1 11.1893 -10.9166 0 
971 1 11.7373 -9.91741 0 
872 1 12.3159 -10.9064 0 
973 1 12.8636 -9.90976 0 
874 1 13.4419 -10.8991 0 
975 1 13.9895 -9.9042 0 
876 1 14.5698 -10.8918 0 
977 1 15.1166 -9.89625 0 
878 1 15.6983 -10.8856 0 
979 1 16.2451 -9.89295 0 
880 1 16.8276 -10.877 0 
981 1 17.3756 -9.88616 0 
882 1 17.9576 -10.8647 0 
983 1 18.506 -9.8738 0 
884 1 19.0861 -10.8567 0 
985 1 19.6364 -9.8683 0 
886 1 20.2154 -10.8499 0 
987 1 20.7678 -9.86204 0 
888 1 21.35 -10.8439 0 
890 1 22.4842 -10.8347 0 
989 1 21.9042 -9.85632 0 
892 1 23.6181 -10.8308 0 
991 1 23.038 -9.84977 0 
894 1 24.7517 -10.827 0 
993 1 24.1704 -9.84337 0 
896 2 25.8793 -10.8234 0 
995 2 25.3037 -9.84035 0 
898 2 27.0108 -10.8201 0 
997 2 26.4357 -9.83726 0 
900 2 28.1423 -10.817 0 
999 2 27.5677 -9.8344 0 
1001 2 -27.8125 -9.56805 0 
1003 2 -26.6854 -9.5318 0 
1005 2 -25.5581 -9.49477 0 
1007 2 -24.4305 -9.45693 0 
1009 1 -23.3002 -9.40743 0 
1011 1 -22.1686 -9.35672 0 
1013 1 -21.0368 -9.31026 0 
1015 1 -19.9055 -9.26121 0 
1017 1 -18.7738 -9.21052 0 
1019 1 -17.6413 -9.15997 0 
1021 1 -16.5073 -9.10751 0 
1023 1 -15.3743 -9.05302 0 
1025 1 -14.242 -8.99333 0 
1027 1 -13.1102 -8.93056 0 
1029 1 -11.9769 -8.86444 0 
1031 1 -10.8434 -8.79704 0 
934 1 -9.11503 -9.6711 0 
1033 1 -9.71162 -8.72669 0 
936 1 -7.98607 -9.60152 0 
1035 1 -8.58232 -8.65395 0 
938 1 -6.85721 -9.5297 0 
1037 1 -7.45431 -8.5807 0 
940 1 -5.7288 -9.46102 0 
1039 1 -6.32604 -8.50728 0 
942 1 -4.60172 -9.3926 0 
944 1 -3.47923 -9.32223 0 
946 1 -2.35768 -9.25822 0 
948 1 -1.23645 -9.20296 0 
950 1 -0.11687 -9.15128 0 
952 1 1.00473 -9.10848 0 
954 1 2.12796 -9.06992 0 
956 1 3.25356 -9.0344 0 
958 1 4.37745 -9.00997 0 
960 1 5.50229 -8.99454 0 
962 1 6.63075 -8.97785 0 
964 1 7.76201 -8.96383 0 
966 1 8.8944 -8.94697 0 
968 1 10.0248 -8.93262 0 
970 1 11.1531 -8.92591 0 
972 1 12.2818 -8.91896 0 
974 1 13.4096 -8.91351 0 
976 1 14.5376 -8.90976 0 
978 1 15.6652 -8.90096 0 
980 1 16.7969 -8.90177 0 
982 1 17.9259 -8.89251 0 
984 1 19.0569 -8.88581 0 
986 1 20.1863 -8.879 0 
988 1 21.3199 -8.87594 0 
990 1 22.4573 -8.87056 0 
992 1 23.5911 -8.86461 0 
994 1 24.7277 -8.85839 0 
996 2 25.8608 -8.85435 0 
998 2 26.9933 -8.85174 0 
1000 2 28.1257 -8.84931 0 
1002 2 -27.2783 -8.57905 0 
1101 2 -27.8711 -7.62598 0 
1004 2 -26.1516 -8.54247 0 
1103 2 -26.7449 -7.58983 0 
1006 2 -25.0246 -8.50509 0 
1105 2 -25.6186 -7.5529 0 
1008 1 -23.8957 -8.46151 0 
1107 2 -24.492 -7.51516 0 
1010 1 -22.7667 -8.4116 0 
1012 1 -21.6352 -8.36246 0 
1014 1 -20.5041 -8.31517 0 
1016 1 -19.371 -8.26427 0 
1018 1 -18.2383 -8.21448 0 
1020 1 -17.1071 -8.1637 0 
1022 1 -15.9759 -8.10833 0 
1024 1 -14.845 -8.05072 0 
1026 1 -13.7127 -7.98984 0 
1028 1 -12.578 -7.92499 0 
1030 1 -11.4427 -7.85692 0 
1032 1 -10.3088 -7.78364 0 
1034 1 -9.17836 -7.70867 0 
1036 1 -8.05024 -7.63172 0 
1038 1 -6.923 -7.55628 0 
1041 1 -5.19995 -8.43493 0 
1040 1 -5.79534 -7.48003 0 
1043 1 -4.07538 -8.36138 0 
1042 1 -4.67169 -7.40251 0 
1045 1 -2.95205 -8.29386 0 
1044 1 -3.5493 -7.32922 0 
1047 1 -1.82879 -8.2309 0 
1049 1 -0.7089 -8.17087 0 
1051 1 0.413135 -8.12621 0 
1053 1 1.53601 -8.08401 0 
1055 1 2.66182 -8.04998 0 
1057 1 3.79044 -8.01843 0 
1059 1 4.91707 -7.9984 0 
1061 1 6.04235 -7.98749 0 
1063 1 7.17181 -7.97342 0 
1065 1 8.30166 -7.96161 0 
1067 1 9.43592 -7.94705 0 
1069 1 10.5669 -7.93275 0 
1071 1 11.6965 -7.92937 0 
1073 1 12.8253 -7.91988 0 
1075 1 13.9558 -7.9182 0 
1077 1 15.0829 -7.91128 0 
1079 1 16.213 -7.90865 0 
1081 1 17.3437 -7.90707 0 
1083 1 18.4749 -7.90247 0 
1085 1 19.6094 -7.8975 0 
1087 1 20.7417 -7.89118 0 
1089 1 21.8767 -7.89065 0 
1091 1 23.0119 -7.88363 0 
1093 1 24.1477 -7.87914 0 
1095 2 25.2861 -7.87134 0 
1097 2 26.419 -7.86899 0 
1099 2 27.5519 -7.8668 0 
1102 2 -27.3381 -6.63684 0 
1104 2 -26.2124 -6.60035 0 
1106 2 -25.0865 -6.56307 0 
1108 1 -23.9599 -6.52011 0 
1109 1 -23.3646 -7.46699 0 
1110 1 -22.834 -6.47329 0 
1111 1 -22.2341 -7.41715 0 
1112 1 -21.7043 -6.4236 0 
1113 1 -21.1025 -7.36845 0 
1114 1 -20.5736 -6.37543 0 
1115 1 -19.9707 -7.32049 0 
1116 1 -19.4419 -6.32602 0 
1117 1 -18.838 -7.26891 0 
1119 1 -17.7083 -7.21929 0 
1121 1 -16.5785 -7.16491 0 
1123 1 -15.4469 -7.10762 0 
1125 1 -14.3145 -7.05013 0 
1127 1 -13.1804 -6.98737 0 
1129 1 -12.0453 -6.91797 0 
1131 1 -10.9103 -6.84335 0 
1133 1 -9.77792 -6.76551 0 
1135 1 -8.64791 -6.6857 0 
1137 1 -7.51809 -6.60642 0 
1139 1 -6.39091 -6.52723 0 
1141 1 -5.26759 -6.44368 0 
1143 1 -4.14316 -6.36194 0 
1145 1 -3.02479 -6.2829 0 
1046 1 -2.42723 -7.25905 0 
1147 1 -1.90682 -6.21458 0 
1048 1 -1.30508 -7.1932 0 
1050 1 -0.180826 -7.14254 0 
1052 1 0.938718 -7.09933 0 
1054 1 2.06315 -7.06527 0 
1056 1 3.1923 -7.03545 0 
1058 1 4.32372 -7.00769 0 
1060 1 5.45535 -6.99348 0 
1062 1 6.58506 -6.98383 0 
1064 1 7.71606 -6.96977 0 
1066 1 8.84795 -6.96003 0 
1068 1 9.98177 -6.94637 0 
1070 1 11.1139 -6.93664 0 
1072 1 12.2437 -6.92948 0 
1074 1 13.3756 -6.92271 0 
1076 1 14.5067 -6.92021 0 
1078 1 15.6354 -6.91607 0 
1080 1 16.7664 -6.91603 0 
1082 1 17.8951 -6.91488 0 
1084 1 19.0285 -6.91596 0 
1086 1 20.1629 -6.90787 0 
1088 1 21.2984 -6.90614 0 
1090 1 22.4345 -6.90274 0 
1092 1 23.5719 -6.89639 0 
1094 1 24.7097 -6.89042 0 
1096 2 25.8451 -6.88616 0 
1098 2 26.9784 -6.88422 0 
1100 2 28.1116 -6.88241 0 
1201 2 -27.9311 -5.68349 0 
1203 2 -26.806 -5.64742 0 