ITEM: TIMESTEP
3100
ITEM: NUMBER OF ATOMS
2850
ITEM: BOX BOUNDS ff ff pp
-42.092 42.092
-42.092 42.092
-0.280613 0.280613
ITEM: ATOMS id type xu yu zu 
1 2 -27.3398 -28.9988 0 
3 2 -26.2107 -28.9642 0 
5 2 -25.0816 -28.9291 0 
7 2 -23.9525 -28.8936 0 
9 2 -22.8235 -28.8577 0 
11 2 -21.6944 -28.8213 0 
13 2 -20.5655 -28.7844 0 
15 2 -19.4366 -28.7472 0 
17 2 -18.3079 -28.7095 0 
19 2 -17.1793 -28.6715 0 
21 2 -16.0508 -28.6331 0 
23 2 -14.9226 -28.5944 0 
25 2 -13.7947 -28.5554 0 
27 2 -12.667 -28.5163 0 
29 2 -11.5396 -28.477 0 
31 2 -10.4126 -28.4376 0 
33 2 -9.28592 -28.3982 0 
35 2 -8.15967 -28.3589 0 
37 2 -7.03386 -28.3198 0 
39 2 -5.90848 -28.281 0 
2 2 -26.7941 -28.0086 0 
4 2 -25.6649 -27.9736 0 
6 2 -24.5357 -27.9381 0 
8 2 -23.4065 -27.902 0 
10 2 -22.2773 -27.8656 0 
12 2 -21.1481 -27.8286 0 
14 2 -20.019 -27.7912 0 
16 2 -18.89 -27.7533 0 
18 2 -17.7611 -27.715 0 
20 2 -16.6324 -27.6763 0 
22 2 -15.5039 -27.6373 0 
24 2 -14.3755 -27.5979 0 
26 2 -13.2475 -27.5582 0 
28 2 -12.1197 -27.5183 0 
30 2 -10.9923 -27.4783 0 
32 2 -9.86522 -27.4382 0 
34 2 -8.73856 -27.3981 0 
36 2 -7.61233 -27.3581 0 
38 2 -6.48656 -27.3184 0 
40 2 -5.36126 -27.2789 0 
41 2 -4.78357 -28.2426 0 
42 2 -4.23645 -27.24 0 
43 2 -3.65912 -28.2046 0 
44 2 -3.11213 -27.2015 0 
45 2 -2.53513 -28.1673 0 
46 2 -1.98828 -27.1638 0 
47 2 -1.41159 -28.1307 0 
48 2 -0.8649 -27.1269 0 
49 2 -0.288464 -28.095 0 
51 2 0.834263 -28.0602 0 
53 2 1.95663 -28.0264 0 
55 2 3.07869 -27.9937 0 
57 2 4.20048 -27.9622 0 
59 2 5.32207 -27.9319 0 
61 2 6.4435 -27.9029 0 
63 2 7.56483 -27.8752 0 
65 2 8.68613 -27.8488 0 
67 2 9.80743 -27.8237 0 
69 2 10.9288 -27.8 0 
71 2 12.0503 -27.7775 0 
73 2 13.1719 -27.7563 0 
75 2 14.2937 -27.7363 0 
77 2 15.4157 -27.7174 0 
79 2 16.538 -27.6997 0 
81 2 17.6605 -27.683 0 
83 2 18.7832 -27.6673 0 
85 2 19.9063 -27.6526 0 
87 2 21.0296 -27.6388 0 
89 2 22.1532 -27.6258 0 
91 2 23.2771 -27.6136 0 
93 2 24.4012 -27.6022 0 
95 2 25.5256 -27.5914 0 
97 2 26.6503 -27.5812 0 
99 2 27.7752 -27.5717 0 
101 2 -27.378 -27.0533 0 
103 2 -26.2487 -27.0183 0 
102 2 -26.833 -26.0633 0 
105 2 -25.1194 -26.9828 0 
104 2 -25.7037 -26.0278 0 
107 2 -23.9901 -26.9468 0 
106 2 -24.5742 -25.9918 0 
109 2 -22.8607 -26.9102 0 
108 1 -23.4448 -25.9556 0 
111 2 -21.7314 -26.8732 0 
113 2 -20.6021 -26.8357 0 
115 2 -19.4729 -26.7977 0 
117 2 -18.3437 -26.7591 0 
119 2 -17.2147 -26.7202 0 
121 2 -16.0858 -26.6808 0 
123 2 -14.9572 -26.641 0 
125 2 -13.8287 -26.6009 0 
127 2 -12.7006 -26.5605 0 
129 2 -11.5727 -26.5198 0 
131 2 -10.4452 -26.479 0 
133 2 -9.31813 -26.4382 0 
135 2 -8.19146 -26.3973 0 
137 2 -7.06526 -26.3566 0 
139 2 -5.93954 -26.3162 0 
141 2 -4.81433 -26.2762 0 
143 2 -3.68963 -26.2366 0 
145 2 -2.56545 -26.1977 0 
147 2 -1.44177 -26.1596 0 
50 2 0.258046 -27.0909 0 
149 2 -0.318563 -26.1224 0 
52 2 1.38059 -27.056 0 
151 2 0.804196 -26.0862 0 
54 2 2.50279 -27.0222 0 
153 2 1.92656 -26.0512 0 
56 2 3.62468 -26.9896 0 
155 2 3.04857 -26.0174 0 
58 2 4.74633 -26.9582 0 
157 2 4.1703 -25.9849 0 
60 2 5.86779 -26.9282 0 
159 2 5.2918 -25.9538 0 
62 2 6.98913 -26.8996 0 
64 2 8.11041 -26.8723 0 
66 2 9.23169 -26.8465 0 
68 2 10.353 -26.822 0 
70 2 11.4745 -26.7989 0 
72 2 12.596 -26.7771 0 
74 2 13.7178 -26.7566 0 
76 2 14.8398 -26.7373 0 
78 2 15.962 -26.7192 0 
80 2 17.0845 -26.7023 0 
82 2 18.2073 -26.6863 0 
84 2 19.3304 -26.6714 0 
86 2 20.4538 -26.6575 0 
88 2 21.5774 -26.6444 0 
90 2 22.7014 -26.6321 0 
92 2 23.8256 -26.6206 0 
94 2 24.9501 -26.6098 0 
96 2 26.0749 -26.5996 0 
98 2 27.2 -26.5901 0 
100 2 28.3253 -26.5811 0 
201 2 -27.4179 -25.1085 0 
203 2 -26.2885 -25.0731 0 
205 2 -25.159 -25.0372 0 
207 2 -24.0295 -25.0007 0 
209 1 -22.8988 -24.9641 0 
110 1 -22.3146 -25.9183 0 
211 1 -21.7692 -24.9246 0 
112 1 -21.1854 -25.8801 0 
213 1 -20.6397 -24.8865 0 
114 1 -20.056 -25.8422 0 
215 1 -19.5104 -24.8476 0 
116 1 -18.9265 -25.8033 0 
217 1 -18.3811 -24.8072 0 
118 1 -17.7974 -25.7634 0 
120 1 -16.6684 -25.7242 0 
122 1 -15.5395 -25.6836 0 
124 1 -14.4113 -25.6428 0 
126 1 -13.2826 -25.6021 0 
128 1 -12.1544 -25.5608 0 
130 1 -11.0269 -25.5191 0 
132 1 -9.89934 -25.4769 0 
134 1 -8.77247 -25.4357 0 
136 1 -7.64589 -25.3952 0 
138 1 -6.51991 -25.3534 0 
140 1 -5.39477 -25.312 0 
142 1 -4.27018 -25.2715 0 
144 1 -3.14602 -25.2314 0 
146 1 -2.02214 -25.1918 0 
148 1 -0.89895 -25.1535 0 
150 1 0.223883 -25.1168 0 
152 1 1.34651 -25.0804 0 
154 1 2.46901 -25.0458 0 
156 1 3.59104 -25.0125 0 
158 1 4.71226 -24.9804 0 
160 1 5.83356 -24.9502 0 
161 2 6.41316 -25.9242 0 
162 1 6.95536 -24.9213 0 
163 2 7.53443 -25.896 0 
164 1 8.07709 -24.8935 0 
165 2 8.65568 -25.8693 0 
167 2 9.77697 -25.844 0 
166 1 9.19911 -24.8675 0 
169 2 10.8984 -25.8202 0 
168 1 10.3208 -24.843 0 
171 2 12.0199 -25.7978 0 
170 1 11.4425 -24.8202 0 
173 2 13.1416 -25.7768 0 
175 2 14.2636 -25.7571 0 
177 2 15.3858 -25.7386 0 
179 2 16.5083 -25.7213 0 
181 2 17.6311 -25.7052 0 
183 2 18.7543 -25.6901 0 
185 2 19.8777 -25.6759 0 
187 2 21.0014 -25.6627 0 
189 2 22.1254 -25.6504 0 
191 2 23.2498 -25.6388 0 
193 2 24.3744 -25.628 0 
195 2 25.4993 -25.6179 0 
197 2 26.6245 -25.6084 0 
199 2 27.75 -25.5994 0 
202 2 -26.8739 -24.1187 0 
204 2 -25.7444 -24.0828 0 
206 2 -24.6148 -24.0464 0 
208 1 -23.4844 -24.0096 0 
210 1 -22.3548 -23.9704 0 
212 1 -21.2245 -23.9312 0 
214 1 -20.0948 -23.8923 0 
216 1 -18.9656 -23.8521 0 
219 1 -17.2517 -24.7672 0 
218 1 -17.8357 -23.8116 0 
221 1 -16.1229 -24.727 0 
220 1 -16.7063 -23.7705 0 
222 1 -15.5773 -23.7292 0 
223 1 -14.9939 -24.6855 0 
224 1 -14.4479 -23.6877 0 
225 1 -13.8645 -24.6445 0 
227 1 -12.7359 -24.6025 0 
229 1 -11.6084 -24.5601 0 
231 1 -10.4809 -24.5177 0 
233 1 -9.35352 -24.4748 0 
235 1 -8.22696 -24.4331 0 
237 1 -7.10118 -24.391 0 
239 1 -5.97564 -24.348 0 
241 1 -4.85069 -24.3066 0 
243 1 -3.72641 -24.2654 0 
245 1 -2.60276 -24.225 0 
247 1 -1.47939 -24.1856 0 
249 1 -0.356171 -24.1475 0 
251 1 0.766261 -24.1103 0 
253 1 1.88888 -24.0745 0 
255 1 3.01112 -24.0402 0 
257 1 4.13303 -24.0068 0 
259 1 5.25491 -23.9761 0 
261 1 6.37676 -23.9466 0 
263 1 7.4985 -23.9178 0 
265 1 8.62026 -23.8915 0 
267 1 9.74241 -23.8661 0 
269 1 10.8646 -23.8427 0 
271 1 11.9869 -23.8206 0 
172 1 12.5647 -24.7988 0 
273 1 13.1092 -23.8001 0 
174 1 13.6875 -24.7782 0 
275 1 14.2319 -23.7802 0 
176 1 14.8102 -24.7588 0 
277 1 15.3551 -23.7617 0 
178 1 15.9324 -24.7415 0 
279 1 16.4783 -23.7455 0 
180 1 17.0553 -24.7253 0 
281 1 17.602 -23.7293 0 
182 1 18.1787 -24.7097 0 
283 1 18.7256 -23.7142 0 
184 1 19.3023 -24.695 0 
285 1 19.8497 -23.7008 0 
186 1 20.4261 -24.6818 0 
287 1 20.9738 -23.688 0 
188 1 21.5499 -24.6694 0 
289 1 22.0983 -23.6764 0 
190 1 22.674 -24.6575 0 
291 1 23.2231 -23.6647 0 
192 1 23.7985 -24.6465 0 
293 1 24.3479 -23.6543 0 
194 1 24.9237 -24.6358 0 
295 2 25.4729 -23.6443 0 
196 2 26.0488 -24.6264 0 
198 2 27.1745 -24.6176 0 
200 2 28.3003 -24.6093 0 
301 2 -27.4598 -23.1644 0 
303 2 -26.3303 -23.1287 0 
305 2 -25.2007 -23.0924 0 
307 2 -24.071 -23.0555 0 
309 1 -22.941 -23.0166 0 
311 1 -21.8102 -22.9772 0 
313 1 -20.6794 -22.9377 0 
315 1 -19.5502 -22.8974 0 
317 1 -18.4206 -22.8573 0 
319 1 -17.2909 -22.8155 0 
321 1 -16.1615 -22.7736 0 
323 1 -15.0318 -22.7315 0 
226 1 -13.3191 -23.6452 0 
325 1 -13.9032 -22.6883 0 
327 1 -12.7746 -22.6451 0 
228 1 -12.1909 -23.6019 0 
329 1 -11.6457 -22.6011 0 
230 1 -11.063 -23.5592 0 
331 1 -10.5179 -22.5571 0 
232 1 -9.93543 -23.5157 0 
333 1 -9.39061 -22.5128 0 
234 1 -8.80841 -23.4719 0 
236 1 -7.68262 -23.4286 0 
238 1 -6.55715 -23.3852 0 
240 1 -5.43149 -23.3421 0 
242 1 -4.30696 -23.3001 0 
244 1 -3.18296 -23.2586 0 
246 1 -2.05958 -23.2181 0 
248 1 -0.936749 -23.179 0 
250 1 0.185775 -23.1403 0 
252 1 1.30823 -23.1039 0 
254 1 2.43097 -23.0683 0 
256 1 3.55343 -23.034 0 
258 1 4.67575 -23.0022 0 
260 1 5.79788 -22.9717 0 
262 1 6.91977 -22.9424 0 
264 1 8.04199 -22.9151 0 
266 1 9.16409 -22.8896 0 
268 1 10.2867 -22.8653 0 
270 1 11.4092 -22.8428 0 
272 1 12.5322 -22.8213 0 
274 1 13.6549 -22.8015 0 
276 1 14.7779 -22.7827 0 
278 1 15.9012 -22.765 0 
280 1 17.0246 -22.749 0 
282 1 18.1485 -22.7334 0 
284 1 19.2729 -22.72 0 
286 1 20.3973 -22.7068 0 
288 1 21.522 -22.6946 0 
290 1 22.6468 -22.6833 0 
292 1 23.7721 -22.6724 0 
294 1 24.8974 -22.6627 0 
297 2 26.5987 -23.6355 0 
296 2 26.0228 -22.6533 0 
299 2 27.7248 -23.6273 0 
298 2 27.149 -22.6452 0 
300 2 28.2755 -22.6376 0 
302 2 -26.9167 -22.1747 0 
304 2 -25.7871 -22.1385 0 
306 2 -24.6574 -22.1018 0 
308 1 -23.5273 -22.0633 0 
310 1 -22.3971 -22.0239 0 
312 1 -21.2665 -21.9843 0 
314 1 -20.1365 -21.943 0 
316 1 -19.0062 -21.9032 0 
318 1 -17.876 -21.8615 0 
320 1 -16.7459 -21.8186 0 
322 1 -15.616 -21.7762 0 
324 1 -14.4872 -21.732 0 
326 1 -13.3586 -21.6886 0 
328 1 -12.23 -21.6447 0 
330 1 -11.1014 -21.599 0 
332 1 -9.97358 -21.5541 0 
334 1 -8.84682 -21.5084 0 
335 1 -8.264 -22.4676 0 
336 1 -7.72071 -21.4624 0 
337 1 -7.13803 -22.4232 0 
338 1 -6.5949 -21.4172 0 
339 1 -6.01252 -22.3793 0 
340 1 -5.46996 -21.3722 0 
341 1 -4.88782 -22.3354 0 
343 1 -3.76382 -22.2928 0 
345 1 -2.64013 -22.251 0 
347 1 -1.51677 -22.2105 0 
349 1 -0.394144 -22.1711 0 
351 1 0.728807 -22.133 0 
353 1 1.8513 -22.0972 0 
355 1 2.97379 -22.0619 0 
357 1 4.09614 -22.0285 0 
359 1 5.21832 -21.9972 0 
361 1 6.34062 -21.967 0 
363 1 7.46285 -21.9391 0 
365 1 8.58498 -21.9127 0 
367 1 9.70762 -21.8882 0 
369 1 10.8303 -21.8645 0 
371 1 11.9532 -21.843 0 
373 1 13.0764 -21.8223 0 
375 1 14.1999 -21.8032 0 
377 1 15.3233 -21.7851 0 
379 1 16.4472 -21.7682 0 
381 1 17.5712 -21.7525 0 
383 1 18.6959 -21.7388 0 
385 1 19.8203 -21.7255 0 
387 1 20.9451 -21.7131 0 
389 1 22.0705 -21.7016 0 
391 1 23.1959 -21.6909 0 
393 1 24.3212 -21.6808 0 
395 2 25.4466 -21.6709 0 
397 2 26.573 -21.6629 0 
399 2 27.6998 -21.6554 0 
401 2 -27.5037 -21.2208 0 
403 2 -26.3741 -21.1849 0 
402 2 -26.9617 -20.2313 0 
405 2 -25.2445 -21.1483 0 
404 2 -25.8321 -20.1949 0 
407 2 -24.1147 -21.111 0 
409 1 -22.9842 -21.071 0 
411 1 -21.8538 -21.0312 0 
413 1 -20.7234 -20.9899 0 
415 1 -19.592 -20.9491 0 
417 1 -18.4618 -20.9077 0 
419 1 -17.3316 -20.8647 0 
421 1 -16.2014 -20.8215 0 
423 1 -15.0723 -20.7769 0 
425 1 -13.9428 -20.7326 0 
427 1 -12.8142 -20.6882 0 
429 1 -11.686 -20.6427 0 
431 1 -10.5574 -20.5961 0 
433 1 -9.42984 -20.5497 0 
435 1 -8.30345 -20.5024 0 
437 1 -7.17754 -20.4558 0 
439 1 -6.05203 -20.4096 0 
342 1 -4.34529 -21.3279 0 
441 1 -4.9268 -20.3643 0 
344 1 -3.22117 -21.2848 0 
443 1 -3.80227 -20.3196 0 
346 1 -2.09755 -21.2427 0 
445 1 -2.67848 -20.2757 0 
348 1 -0.974458 -21.2017 0 
447 1 -1.55516 -20.2337 0 
350 1 0.148502 -21.1632 0 
352 1 1.27149 -21.1255 0 
354 1 2.39344 -21.0899 0 
356 1 3.51564 -21.0553 0 
358 1 4.63781 -21.0229 0 
360 1 5.76015 -20.9923 0 
362 1 6.88284 -20.9631 0 
364 1 8.00537 -20.9357 0 
366 1 9.12805 -20.9107 0 
368 1 10.2509 -20.8867 0 
370 1 11.3742 -20.8642 0 
372 1 12.4975 -20.8431 0 
374 1 13.6212 -20.8237 0 
376 1 14.7448 -20.805 0 
378 1 15.8687 -20.7877 0 
380 1 16.9932 -20.7717 0 
382 1 18.118 -20.7572 0 
384 1 19.2426 -20.744 0 
386 1 20.3676 -20.7317 0 
388 1 21.4932 -20.7203 0 
390 1 22.6193 -20.7096 0 
392 1 23.7448 -20.699 0 
394 1 24.8704 -20.6894 0 
396 2 25.9969 -20.6804 0 
398 2 27.1238 -20.673 0 
400 2 28.251 -20.6661 0 
501 2 -27.5497 -19.2779 0 
503 2 -26.4202 -19.2417 0 
505 2 -25.2906 -19.2049 0 
406 2 -24.7023 -20.1579 0 
507 2 -24.1608 -19.1673 0 
408 1 -23.5719 -20.1192 0 
509 1 -23.0301 -19.1272 0 
410 1 -22.4409 -20.0786 0 
511 1 -21.8992 -19.0858 0 
412 1 -21.3105 -20.0375 0 
513 1 -20.7679 -19.0444 0 
414 1 -20.1794 -19.9963 0 
416 1 -19.049 -19.9542 0 
418 1 -17.9187 -19.9117 0 
420 1 -16.788 -19.8681 0 
422 1 -15.6584 -19.8228 0 
424 1 -14.5284 -19.778 0 
426 1 -13.399 -19.7323 0 
428 1 -12.2706 -19.6866 0 
430 1 -11.1422 -19.6397 0 
432 1 -10.0142 -19.5919 0 
434 1 -8.88715 -19.5437 0 
436 1 -7.76064 -19.4954 0 
438 1 -6.63467 -19.4479 0 
440 1 -5.50892 -19.4015 0 
442 1 -4.38387 -19.3554 0 
444 1 -3.25958 -19.3101 0 
446 1 -2.13561 -19.266 0 
448 1 -1.01257 -19.2242 0 
449 1 -0.431812 -20.1933 0 
450 1 0.11018 -19.1843 0 
451 1 0.690995 -20.1546 0 
452 1 1.2331 -19.1453 0 
453 1 1.81331 -20.1172 0 
454 1 2.35564 -19.1091 0 
455 1 2.93554 -20.0824 0 
456 1 3.47807 -19.0748 0 
457 1 4.05809 -20.0488 0 
459 1 5.18061 -20.0172 0 
461 1 6.30327 -19.9874 0 
463 1 7.42604 -19.9593 0 
465 1 8.5488 -19.933 0 
467 1 9.67173 -19.9086 0 
469 1 10.7951 -19.8856 0 
471 1 11.9186 -19.8639 0 
473 1 13.0426 -19.8441 0 
475 1 14.1666 -19.8252 0 
477 1 15.2908 -19.8073 0 
479 1 16.415 -19.7909 0 
481 1 17.5397 -19.7761 0 
483 1 18.6651 -19.7624 0 
485 1 19.7903 -19.75 0 
487 1 20.9157 -19.7383 0 
489 1 22.0416 -19.7282 0 
491 1 23.168 -19.7178 0 
493 1 24.2943 -19.7074 0 
495 2 25.4205 -19.6978 0 
497 2 26.5477 -19.6905 0 
499 2 27.6751 -19.6838 0 
502 2 -27.0088 -18.2886 0 
504 2 -25.8793 -18.252 0 
506 2 -24.7497 -18.2147 0 
508 1 -23.6186 -18.1753 0 
510 1 -22.4878 -18.1347 0 
512 1 -21.3565 -18.0931 0 
514 1 -20.2257 -18.0499 0 
515 1 -19.637 -19.0014 0 
516 1 -19.0946 -18.0066 0 
517 1 -18.5062 -18.959 0 
518 1 -17.964 -17.9634 0 
519 1 -17.3755 -18.9158 0 
520 1 -16.8337 -17.9183 0 
521 1 -16.2451 -18.87 0 
523 1 -15.1148 -18.8245 0 
525 1 -13.9852 -18.7781 0 
527 1 -12.8561 -18.7312 0 
529 1 -11.7275 -18.6843 0 
531 1 -10.5991 -18.6355 0 
533 1 -9.47145 -18.5864 0 
535 1 -8.34426 -18.5369 0 
537 1 -7.21781 -18.4877 0 
539 1 -6.09191 -18.4398 0 
541 1 -4.96651 -18.3923 0 
543 1 -3.84174 -18.3455 0 
545 1 -2.71759 -18.3 0 
547 1 -1.59382 -18.2557 0 
549 1 -0.470522 -18.2136 0 
551 1 0.652264 -18.1741 0 
553 1 1.77482 -18.1361 0 
555 1 2.89716 -18.1005 0 
557 1 4.01966 -18.0669 0 
458 1 4.60065 -19.042 0 
559 1 5.14224 -18.0352 0 
460 1 5.72328 -19.0113 0 
561 1 6.26518 -18.0055 0 
462 1 6.8458 -18.9826 0 
563 1 7.38832 -17.9778 0 
464 1 7.96827 -18.9556 0 
565 1 8.51149 -17.952 0 
466 1 9.0911 -18.9305 0 
567 1 9.63509 -17.9284 0 
468 1 10.2146 -18.9072 0 
569 1 10.759 -17.9057 0 
470 1 11.3384 -18.8847 0 
472 1 12.4628 -18.8645 0 
474 1 13.5869 -18.8455 0 
476 1 14.7116 -18.8274 0 
478 1 15.8368 -18.8106 0 
480 1 16.9623 -18.7951 0 
482 1 18.0878 -18.7813 0 
484 1 19.2133 -18.7681 0 
486 1 20.3388 -18.7564 0 
488 1 21.4652 -18.7456 0 
490 1 22.5914 -18.7361 0 
492 1 23.7179 -18.7261 0 
494 1 24.8446 -18.7159 0 
496 2 25.9714 -18.7078 0 
498 2 27.0991 -18.7012 0 
500 2 28.2271 -18.6951 0 
601 2 -27.5979 -17.3354 0 
603 2 -26.4686 -17.2992 0 
605 2 -25.3391 -17.2621 0 
607 2 -24.2094 -17.2244 0 
609 1 -23.0781 -17.1833 0 
611 1 -21.9467 -17.1422 0 
613 1 -20.8157 -17.099 0 
615 1 -19.6845 -17.0552 0 
617 1 -18.5531 -17.0114 0 
619 1 -17.4225 -16.9664 0 
522 1 -15.7028 -17.8721 0 
621 1 -16.2914 -16.9206 0 
524 1 -14.5724 -17.8252 0 
623 1 -15.1603 -16.8733 0 
526 1 -13.4428 -17.7775 0 
625 1 -14.03 -16.8247 0 
528 1 -12.3132 -17.7296 0 
627 1 -12.8999 -16.7763 0 
530 1 -11.1845 -17.6803 0 
532 1 -10.0559 -17.6302 0 
534 1 -8.92823 -17.58 0 
536 1 -7.80119 -17.5293 0 
538 1 -6.67493 -17.4794 0 
540 1 -5.54946 -17.4303 0 
542 1 -4.42463 -17.3819 0 
544 1 -3.30022 -17.3346 0 
546 1 -2.17652 -17.2885 0 
548 1 -1.05287 -17.2442 0 
550 1 0.0707228 -17.2027 0 
552 1 1.19387 -17.1633 0 
554 1 2.31649 -17.1263 0 
556 1 3.43891 -17.0916 0 
558 1 4.5613 -17.0589 0 
560 1 5.68443 -17.0286 0 
562 1 6.80791 -17.0003 0 
564 1 7.93139 -16.9737 0 
566 1 9.05514 -16.9492 0 
568 1 10.1789 -16.926 0 
571 1 11.8835 -17.8852 0 
570 1 11.3037 -16.9053 0 
573 1 13.0084 -17.8653 0 
572 1 12.4287 -16.8855 0 
575 1 14.1332 -17.8474 0 
574 1 13.5543 -16.8668 0 
577 1 15.2584 -17.8305 0 
576 1 14.6796 -16.8501 0 
579 1 16.3842 -17.8148 0 
578 1 15.8052 -16.8341 0 
581 1 17.5101 -17.7999 0 
580 1 16.931 -16.819 0 
583 1 18.6358 -17.7867 0 
582 1 18.0576 -16.8053 0 
585 1 19.7617 -17.7746 0 
584 1 19.1838 -16.793 0 
587 1 20.8878 -17.7639 0 
586 1 20.3103 -16.7818 0 
589 1 22.0143 -17.7534 0 
588 1 21.437 -16.7714 0 
591 1 23.1409 -17.7442 0 
590 1 22.564 -16.7618 0 
593 1 24.2676 -17.7343 0 
592 1 23.6909 -16.7521 0 
595 2 25.3948 -17.725 0 
594 1 24.8185 -16.7432 0 
596 2 25.9465 -16.7357 0 
597 2 26.5229 -17.7186 0 
598 2 27.0751 -16.7299 0 
599 2 27.6512 -17.7126 0 
600 2 28.2039 -16.7246 0 
602 2 -27.0583 -16.3463 0 
604 2 -25.929 -16.3096 0 
606 2 -24.7995 -16.2721 0 
608 1 -23.669 -16.2325 0 
610 1 -22.5376 -16.1914 0 
612 1 -21.4063 -16.1485 0 
614 1 -20.2753 -16.1048 0 
616 1 -19.1434 -16.0607 0 
618 1 -18.012 -16.0152 0 
620 1 -16.881 -15.9696 0 
622 1 -15.75 -15.9221 0 
624 1 -14.619 -15.8734 0 
626 1 -13.488 -15.8242 0 
628 1 -12.3583 -15.7731 0 
629 1 -11.7706 -16.726 0 
630 1 -11.2291 -15.7215 0 
631 1 -10.6417 -16.6752 0 
632 1 -10.1001 -15.6692 0 
633 1 -9.51356 -16.624 0 
634 1 -8.97222 -15.6162 0 
635 1 -8.38656 -16.5725 0 
637 1 -7.26001 -16.5205 0 
639 1 -6.13383 -16.4697 0 
641 1 -5.00875 -16.4193 0 
643 1 -3.88411 -16.3703 0 
645 1 -2.76014 -16.322 0 
647 1 -1.63645 -16.276 0 
649 1 -0.512937 -16.2323 0 
651 1 0.61021 -16.1914 0 
653 1 1.73339 -16.1526 0 
655 1 2.85647 -16.1165 0 
657 1 3.97924 -16.0826 0 
659 1 5.10231 -16.0513 0 
661 1 6.22571 -16.0224 0 
663 1 7.34949 -15.9952 0 
665 1 8.47371 -15.9702 0 
667 1 9.59804 -15.9463 0 
669 1 10.7228 -15.925 0 
671 1 11.8478 -15.9052 0 
673 1 12.9735 -15.8865 0 
675 1 14.0998 -15.8692 0 
677 1 15.2258 -15.8533 0 
679 1 16.352 -15.8381 0 
681 1 17.4788 -15.8243 0 
683 1 18.6059 -15.8111 0 
685 1 19.7326 -15.7996 0 
687 1 20.8594 -15.789 0 
689 1 21.9868 -15.7794 0 
691 1 23.1142 -15.77 0 
693 1 24.2422 -15.7611 0 
695 2 25.3699 -15.7527 0 
697 2 26.4989 -15.7471 0 
699 2 27.6281 -15.742 0 
701 2 -27.6483 -15.3934 0 
703 2 -26.5193 -15.357 0 
705 2 -25.3901 -15.3199 0 
707 2 -24.2607 -15.282 0 
709 1 -23.129 -15.2407 0 
711 1 -21.9978 -15.1987 0 
713 1 -20.8667 -15.1545 0 
715 1 -19.7353 -15.111 0 
717 1 -18.6037 -15.0655 0 
719 1 -17.4716 -15.0193 0 
721 1 -16.3402 -14.9716 0 
723 1 -15.2087 -14.9228 0 
725 1 -14.0777 -14.8732 0 
727 1 -12.9475 -14.8217 0 
729 1 -11.8175 -14.7691 0 
731 1 -10.6882 -14.7158 0 
733 1 -9.55935 -14.6617 0 
636 1 -7.84536 -15.5632 0 
735 1 -8.43144 -14.6069 0 
638 1 -6.71861 -15.5104 0 
737 1 -7.30452 -14.5529 0 
640 1 -5.5931 -15.4577 0 
739 1 -6.17841 -14.4979 0 
642 1 -4.4681 -15.4069 0 
644 1 -3.34405 -15.3568 0 
646 1 -2.22028 -15.3089 0 
648 1 -1.09676 -15.2629 0 
650 1 0.0266846 -15.2197 0 
652 1 1.15013 -15.1794 0 
654 1 2.2733 -15.1419 0 
656 1 3.39635 -15.1067 0 
658 1 4.52003 -15.0742 0 
660 1 5.64381 -15.0441 0 
662 1 6.76751 -15.0164 0 
664 1 7.89212 -14.991 0 
666 1 9.01717 -14.9669 0 
668 1 10.1425 -14.9449 0 
670 1 11.268 -14.9244 0 
672 1 12.3934 -14.9056 0 
674 1 13.5197 -14.8881 0 
676 1 14.6463 -14.8721 0 
678 1 15.773 -14.8569 0 
680 1 16.8996 -14.8426 0 
682 1 18.0267 -14.8295 0 
684 1 19.1545 -14.8172 0 
686 1 20.2819 -14.8062 0 
688 1 21.4095 -14.797 0 
690 1 22.5371 -14.7876 0 
692 1 23.6655 -14.7791 0 
694 1 24.7943 -14.771 0 
696 2 25.9226 -14.7642 0 
698 2 27.0521 -14.7592 0 
700 2 28.1818 -14.7547 0 
702 2 -27.11 -14.4044 0 
801 2 -27.7009 -13.4516 0 
704 2 -25.9811 -14.3676 0 
803 2 -26.5724 -13.4152 0 
706 2 -24.852 -14.3301 0 
805 2 -25.4437 -13.3781 0 
708 1 -23.7213 -14.2902 0 
807 2 -24.3146 -13.3401 0 
710 1 -22.5903 -14.2486 0 
809 1 -23.183 -13.2984 0 
712 1 -21.4593 -14.2057 0 
714 1 -20.3275 -14.1616 0 
716 1 -19.1961 -14.1165 0 
718 1 -18.0639 -14.0705 0 
720 1 -16.9317 -14.0224 0 
722 1 -15.7997 -13.9731 0 
724 1 -14.6685 -13.9227 0 
726 1 -13.5383 -13.8712 0 
728 1 -12.4074 -13.8185 0 
730 1 -11.2771 -13.7635 0 
732 1 -10.1477 -13.7087 0 
734 1 -9.01933 -13.6529 0 
736 1 -7.89164 -13.5965 0 
738 1 -6.76532 -13.5404 0 
740 1 -5.63948 -13.4841 0 
741 1 -5.05332 -14.4447 0 
742 1 -4.51423 -13.4298 0 
743 1 -3.92877 -14.3926 0 
744 1 -3.38934 -13.3772 0 
745 1 -2.80442 -14.3424 0 
746 1 -2.26549 -13.3264 0 
747 1 -1.68097 -14.2944 0 
749 1 -0.557749 -14.2491 0 
751 1 0.565781 -14.2067 0 
753 1 1.68942 -14.1671 0 
755 1 2.81273 -14.1308 0 
757 1 3.93613 -14.0975 0 
759 1 5.06004 -14.0662 0 
761 1 6.18443 -14.0377 0 
763 1 7.30924 -14.0115 0 
765 1 8.43463 -13.9875 0 
767 1 9.56048 -13.9647 0 
769 1 10.6865 -13.9439 0 
771 1 11.8127 -13.9241 0 
773 1 12.9393 -13.9067 0 
775 1 14.0665 -13.8901 0 
777 1 15.1939 -13.8753 0 
779 1 16.3212 -13.8606 0 
781 1 17.4486 -13.8472 0 
783 1 18.5763 -13.8351 0 
785 1 19.7045 -13.8239 0 
787 1 20.8329 -13.8142 0 
789 1 21.9611 -13.8054 0 
791 1 23.0895 -13.7968 0 
793 1 24.218 -13.7889 0 
795 2 25.3462 -13.7811 0 
797 2 26.4761 -13.7764 0 
799 2 27.6062 -13.772 0 
802 2 -27.164 -12.4626 0 
804 2 -26.0357 -12.4259 0 
806 2 -24.9071 -12.3884 0 
808 1 -23.7769 -12.3489 0 
810 1 -22.6462 -12.3064 0 
811 1 -22.0521 -13.2562 0 
812 1 -21.5152 -12.2638 0 
813 1 -20.9207 -13.2129 0 
814 1 -20.3836 -12.2196 0 
815 1 -19.7889 -13.1679 0 
816 1 -19.2513 -12.1739 0 
817 1 -18.6571 -13.1221 0 
818 1 -18.1194 -12.1265 0 
819 1 -17.5251 -13.0742 0 
821 1 -16.393 -13.0248 0 
823 1 -15.261 -12.9737 0 
825 1 -14.1298 -12.9212 0 
827 1 -12.9986 -12.8687 0 
829 1 -11.8681 -12.8134 0 
831 1 -10.7379 -12.7574 0 
833 1 -9.60856 -12.7004 0 
835 1 -8.48042 -12.6423 0 
837 1 -7.35319 -12.584 0 
839 1 -6.22687 -12.526 0 
841 1 -5.10103 -12.4687 0 
843 1 -3.9758 -12.4134 0 
845 1 -2.85158 -12.3599 0 
748 1 -1.14268 -13.2788 0 
847 1 -1.72805 -12.3094 0 
849 1 -0.604783 -12.2629 0 
750 1 -0.0197948 -13.2346 0 
851 1 0.518422 -12.2195 0 
752 1 1.10364 -13.1931 0 
853 1 1.64234 -12.1801 0 
754 1 2.22759 -13.1553 0 
756 1 3.35143 -13.1206 0 
758 1 4.47556 -13.0883 0 
760 1 5.60058 -13.0591 0 
762 1 6.72598 -13.0325 0 
764 1 7.85204 -13.0076 0 
766 1 8.97803 -12.9844 0 
768 1 10.1044 -12.9631 0 
770 1 11.2309 -12.943 0 
772 1 12.3581 -12.925 0 
774 1 13.4854 -12.9083 0 
776 1 14.6133 -12.8929 0 
778 1 15.7411 -12.8787 0 
780 1 16.8692 -12.8651 0 
782 1 17.9976 -12.8525 0 
784 1 19.1263 -12.8416 0 
786 1 20.2553 -12.8317 0 
788 1 21.3844 -12.8229 0 
790 1 22.5128 -12.8143 0 
792 1 23.6414 -12.8066 0 
794 1 24.7704 -12.7989 0 
796 2 25.9 -12.7934 0 
798 2 27.0306 -12.7893 0 
800 2 28.1612 -12.7854 0 
901 2 -27.7557 -11.5099 0 
903 2 -26.6279 -11.4735 0 
905 2 -25.4997 -11.4364 0 
907 2 -24.3713 -11.3985 0 
909 1 -23.2411 -11.3572 0 
911 1 -22.1096 -11.3147 0 
913 1 -20.9784 -11.271 0 
915 1 -19.8466 -11.2261 0 
917 1 -18.7147 -11.1791 0 
820 1 -16.9873 -12.0773 0 
919 1 -17.5831 -11.1306 0 
822 1 -15.855 -12.0266 0 
921 1 -16.4512 -11.0802 0 
824 1 -14.723 -11.9734 0 
923 1 -15.3191 -11.0276 0 
826 1 -13.5912 -11.92 0 
828 1 -12.4606 -11.8646 0 
830 1 -11.33 -11.8079 0 
832 1 -10.1997 -11.7498 0 
834 1 -9.0707 -11.69 0 
836 1 -7.94257 -11.6297 0 
838 1 -6.81553 -11.5696 0 
840 1 -5.68916 -11.51 0 
842 1 -4.56342 -11.4519 0 
844 1 -3.43863 -11.3952 0 
846 1 -2.31464 -11.3417 0 
848 1 -1.19093 -11.2922 0 
850 1 -0.0674421 -11.2459 0 
852 1 1.05629 -11.2045 0 
855 1 2.76674 -12.1436 0 
854 1 2.18056 -11.1671 0 
857 1 3.89126 -12.1102 0 
856 1 3.30557 -11.1323 0 
859 1 5.0163 -12.0803 0 
858 1 4.43128 -11.1006 0 
861 1 6.14175 -12.0527 0 
860 1 5.55701 -11.0723 0 
863 1 7.26759 -12.0276 0 
862 1 6.68322 -11.0469 0 
865 1 8.39404 -12.0039 0 
864 1 7.81016 -11.0233 0 
867 1 9.52105 -11.9822 0 
869 1 10.6484 -11.9617 0 
871 1 11.7762 -11.9432 0 
873 1 12.9039 -11.9264 0 
875 1 14.032 -11.9108 0 
877 1 15.1605 -11.8964 0 
879 1 16.2891 -11.8831 0 
881 1 17.4181 -11.8704 0 
883 1 18.5476 -11.8591 0 
885 1 19.677 -11.8491 0 
887 1 20.8068 -11.8402 0 
889 1 21.936 -11.8315 0 
891 1 23.0651 -11.8239 0 
893 1 24.1943 -11.8169 0 
895 2 25.3239 -11.8103 0 
897 2 26.4549 -11.8064 0 
899 2 27.586 -11.8028 0 
902 2 -27.2202 -10.5209 0 
904 2 -26.0925 -10.4842 0 
906 2 -24.9646 -10.4468 0 
908 1 -23.8355 -10.4073 0 
910 1 -22.7049 -10.3663 0 
912 1 -21.5742 -10.3225 0 
914 1 -20.4433 -10.2786 0 
916 1 -19.3118 -10.2324 0 
918 1 -18.1799 -10.1844 0 
920 1 -17.0481 -10.1345 0 
922 1 -15.9161 -10.0822 0 
924 1 -14.7837 -10.0288 0 
925 1 -14.1863 -10.9735 0 
926 1 -13.651 -9.97225 0 
927 1 -13.0545 -10.9172 0 
928 1 -12.5186 -9.91359 0 
929 1 -11.9232 -10.8598 0 
930 1 -11.3864 -9.85432 0 
931 1 -10.7921 -10.8009 0 
933 1 -9.66218 -10.7397 0 
935 1 -8.53293 -10.6779 0 
937 1 -7.40483 -10.6149 0 
939 1 -6.2778 -10.5529 0 
941 1 -5.15175 -10.4921 0 
943 1 -4.02641 -10.4325 0 
945 1 -2.90196 -10.3756 0 
947 1 -1.77832 -10.3227 0 
949 1 -0.654898 -10.2734 0 
951 1 0.469206 -10.2293 0 
953 1 1.59391 -10.1903 0 
955 1 2.71869 -10.1546 0 
957 1 3.84473 -10.1222 0 
959 1 4.97144 -10.0924 0 
961 1 6.09844 -10.0662 0 
963 1 7.22591 -10.0424 0 
965 1 8.35391 -10.0203 0 
866 1 8.9377 -11.0014 0 
967 1 9.48225 -9.99951 0 
868 1 10.0655 -10.9808 0 
969 1 10.6111 -9.98063 0 
870 1 11.1943 -10.9618 0 
971 1 11.7405 -9.96268 0 
872 1 12.3232 -10.9443 0 
973 1 12.8704 -9.9466 0 
874 1 13.4519 -10.9289 0 
975 1 14.0001 -9.93206 0 
876 1 14.5809 -10.9142 0 
977 1 15.1297 -9.91835 0 
878 1 15.7103 -10.9005 0 
979 1 16.2599 -9.90575 0 
880 1 16.8395 -10.8882 0 
981 1 17.3903 -9.89463 0 
882 1 17.9692 -10.8771 0 
983 1 18.5203 -9.88383 0 
884 1 19.0991 -10.8664 0 
985 1 19.6509 -9.87462 0 
886 1 20.229 -10.8575 0 
987 1 20.7814 -9.86634 0 
888 1 21.3588 -10.8487 0 
890 1 22.4888 -10.8414 0 
989 1 21.9121 -9.85896 0 
892 1 23.6187 -10.8345 0 
991 1 23.0428 -9.85211 0 
894 1 24.7489 -10.8285 0 
993 1 24.1732 -9.84621 0 
896 2 25.8793 -10.8234 0 
995 2 25.3037 -9.84035 0 
898 2 27.0108 -10.8201 0 
997 2 26.4357 -9.83726 0 
900 2 28.1423 -10.817 0 
999 2 27.5677 -9.8344 0 
1001 2 -27.8125 -9.56805 0 
1003 2 -26.6854 -9.5318 0 
1005 2 -25.5581 -9.49477 0 
1007 2 -24.4305 -9.45693 0 
1009 1 -23.3005 -9.41671 0 
1011 1 -22.1706 -9.37417 0 
1013 1 -21.0399 -9.33079 0 
1015 1 -19.9091 -9.28556 0 
1017 1 -18.7782 -9.2384 0 
1019 1 -17.6468 -9.18953 0 
1021 1 -16.5148 -9.1378 0 
1023 1 -15.3824 -9.08405 0 
1025 1 -14.25 -9.02881 0 
1027 1 -13.1168 -8.96987 0 
1029 1 -11.9839 -8.90966 0 
932 1 -10.2552 -9.79163 0 
1031 1 -10.8519 -8.84657 0 
934 1 -9.12495 -9.72825 0 
1033 1 -9.71987 -8.7813 0 
936 1 -7.99624 -9.66322 0 
1035 1 -8.58967 -8.71417 0 
938 1 -6.86809 -9.59816 0 
940 1 -5.74109 -9.53406 0 
942 1 -4.61525 -9.4717 0 
944 1 -3.49061 -9.41061 0 
946 1 -2.36682 -9.35425 0 
948 1 -1.24325 -9.30201 0 
950 1 -0.119263 -9.25509 0 
952 1 1.00546 -9.21379 0 
954 1 2.13088 -9.17644 0 
956 1 3.25705 -9.1436 0 
958 1 4.3839 -9.11315 0 
960 1 5.5119 -9.08564 0 
962 1 6.64044 -9.06129 0 
964 1 7.7694 -9.03896 0 
966 1 8.89883 -9.018 0 
968 1 10.0286 -8.9986 0 
970 1 11.1586 -8.98093 0 
972 1 12.289 -8.96465 0 
974 1 13.4197 -8.94983 0 
976 1 14.5505 -8.93616 0 
978 1 15.6811 -8.92346 0 
980 1 16.8118 -8.91219 0 
982 1 17.9422 -8.90119 0 
984 1 19.0736 -8.89197 0 
986 1 20.2048 -8.88386 0 
988 1 21.3359 -8.87627 0 
990 1 22.467 -8.86993 0 
992 1 23.5983 -8.86398 0 
994 1 24.7295 -8.85841 0 
996 2 25.8608 -8.85435 0 
998 2 26.9933 -8.85174 0 
1000 2 28.1257 -8.84931 0 
1002 2 -27.2783 -8.57905 0 
1101 2 -27.8711 -7.62598 0 
1004 2 -26.1516 -8.54247 0 
1103 2 -26.7449 -7.58983 0 
1006 2 -25.0246 -8.50509 0 
1105 2 -25.6186 -7.5529 0 
1008 1 -23.8959 -8.46638 0 
1107 2 -24.492 -7.51516 0 
1010 1 -22.767 -8.42499 0 
1012 1 -21.6377 -8.38272 0 
1014 1 -20.5077 -8.33879 0 
1016 1 -19.3771 -8.29193 0 
1018 1 -18.2463 -8.24399 0 
1020 1 -17.1155 -8.19373 0 
1022 1 -15.9833 -8.14074 0 
1024 1 -14.8504 -8.08567 0 
1026 1 -13.7174 -8.02804 0 
1028 1 -12.5841 -7.96686 0 
1030 1 -11.4516 -7.90348 0 
1032 1 -10.3189 -7.8378 0 
1034 1 -9.18665 -7.76874 0 
1036 1 -8.05607 -7.69866 0 
1037 1 -7.46065 -8.64675 0 
1038 1 -6.92636 -7.62791 0 
1039 1 -6.33234 -8.57893 0 
1041 1 -5.2055 -8.51286 0 
1043 1 -4.08075 -8.448 0 
1045 1 -2.95675 -8.38685 0 
1047 1 -1.83308 -8.33125 0 
1049 1 -0.708696 -8.28134 0 
1051 1 0.416023 -8.23753 0 
1053 1 1.54157 -8.19858 0 
1055 1 2.66858 -8.16404 0 
1057 1 3.79631 -8.13339 0 
1059 1 4.92484 -8.10546 0 
1061 1 6.05447 -8.08042 0 
1063 1 7.18451 -8.05763 0 
1065 1 8.31463 -8.03651 0 
1067 1 9.44532 -8.0168 0 
1069 1 10.5763 -7.99915 0 
1071 1 11.7075 -7.98262 0 
1073 1 12.8392 -7.96774 0 
1075 1 13.9709 -7.95385 0 
1077 1 15.1024 -7.94094 0 
1079 1 16.2336 -7.92969 0 
1081 1 17.3647 -7.91847 0 
1083 1 18.4963 -7.90918 0 
1085 1 19.6282 -7.90103 0 
1087 1 20.7594 -7.89327 0 
1089 1 21.8913 -7.88711 0 
1091 1 23.0226 -7.8816 0 
1093 1 24.1543 -7.87649 0 
1095 2 25.2861 -7.87134 0 
1097 2 26.419 -7.86899 0 
1099 2 27.5519 -7.8668 0 
1102 2 -27.3381 -6.63684 0 
1104 2 -26.2124 -6.60035 0 
1106 2 -25.0865 -6.56307 0 
1108 1 -23.96 -6.52466 0 
1109 1 -23.3638 -7.4754 0 
1110 1 -22.8322 -6.48453 0 
1111 1 -22.235 -7.43346 0 
1112 1 -21.7039 -6.44173 0 
1113 1 -21.1064 -7.39089 0 
1114 1 -20.5759 -6.39838 0 
1115 1 -19.9771 -7.34586 0 
1116 1 -19.4472 -6.35277 0 
1117 1 -18.8467 -7.29831 0 
1119 1 -17.7164 -7.2489 0 
1121 1 -16.5849 -7.19782 0 
1123 1 -15.4527 -7.1435 0 
1125 1 -14.3205 -7.08666 0 
1127 1 -13.1878 -7.02648 0 
1129 1 -12.0543 -6.96266 0 
1131 1 -10.9206 -6.89653 0 
1133 1 -9.78754 -6.82726 0 
1135 1 -8.65496 -6.75408 0 
1137 1 -7.52388 -6.68081 0 
1139 1 -6.3944 -6.60547 0 
1040 1 -5.79818 -7.55708 0 
1141 1 -5.26702 -6.53078 0 
1042 1 -4.67261 -7.48782 0 
1143 1 -4.14179 -6.45861 0 
1044 1 -3.54832 -7.42142 0 
1046 1 -2.42466 -7.3611 0 
1048 1 -1.30036 -7.30812 0 
1050 1 -0.174494 -7.26089 0 
1052 1 0.95168 -7.22052 0 
1054 1 2.07898 -7.18489 0 
1056 1 3.2076 -7.15323 0 
1058 1 4.3369 -7.12505 0 
1060 1 5.46743 -7.09945 0 
1062 1 6.59826 -7.0764 0 
1064 1 7.72921 -7.05503 0 
1066 1 8.86096 -7.0352 0 
1068 1 9.99325 -7.01729 0 
1070 1 11.1254 -7.0007 0 
1072 1 12.2578 -6.98558 0 
1074 1 13.39 -6.97158 0 
1076 1 14.5225 -6.9585 0 
1078 1 15.655 -6.94661 0 
1080 1 16.7866 -6.9359 0 
1082 1 17.9187 -6.9258 0 
1084 1 19.0509 -6.91787 0 
1086 1 20.183 -6.91018 0 
1088 1 21.3156 -6.90417 0 
1090 1 22.4476 -6.8983 0 
1092 1 23.5798 -6.89393 0 
1094 1 24.7125 -6.88928 0 
1096 2 25.8451 -6.88616 0 
1098 2 26.9784 -6.88422 0 
1100 2 28.1116 -6.88241 0 
1201 2 -27.9311 -5.68349 0 
1203 2 -26.806 -5.64742 0 