ITEM: TIMESTEP
2500
ITEM: NUMBER OF ATOMS
2850
ITEM: BOX BOUNDS ff ff pp
-42.092 42.092
-42.092 42.092
-0.280613 0.280613
ITEM: ATOMS id type xu yu zu 
1 2 -27.3398 -28.9988 0 
3 2 -26.2107 -28.9642 0 
5 2 -25.0816 -28.9291 0 
7 2 -23.9525 -28.8936 0 
9 2 -22.8235 -28.8577 0 
11 2 -21.6944 -28.8213 0 
13 2 -20.5655 -28.7844 0 
15 2 -19.4366 -28.7472 0 
17 2 -18.3079 -28.7095 0 
19 2 -17.1793 -28.6715 0 
21 2 -16.0508 -28.6331 0 
23 2 -14.9226 -28.5944 0 
25 2 -13.7947 -28.5554 0 
27 2 -12.667 -28.5163 0 
29 2 -11.5396 -28.477 0 
31 2 -10.4126 -28.4376 0 
33 2 -9.28592 -28.3982 0 
35 2 -8.15967 -28.3589 0 
37 2 -7.03386 -28.3198 0 
39 2 -5.90848 -28.281 0 
2 2 -26.7941 -28.0086 0 
4 2 -25.6649 -27.9736 0 
6 2 -24.5357 -27.9381 0 
8 2 -23.4065 -27.902 0 
10 2 -22.2773 -27.8656 0 
12 2 -21.1481 -27.8286 0 
14 2 -20.019 -27.7912 0 
16 2 -18.89 -27.7533 0 
18 2 -17.7611 -27.715 0 
20 2 -16.6324 -27.6763 0 
22 2 -15.5039 -27.6373 0 
24 2 -14.3755 -27.5979 0 
26 2 -13.2475 -27.5582 0 
28 2 -12.1197 -27.5183 0 
30 2 -10.9923 -27.4783 0 
32 2 -9.86522 -27.4382 0 
34 2 -8.73856 -27.3981 0 
36 2 -7.61233 -27.3581 0 
38 2 -6.48656 -27.3184 0 
40 2 -5.36126 -27.2789 0 
41 2 -4.78357 -28.2426 0 
42 2 -4.23645 -27.24 0 
43 2 -3.65912 -28.2046 0 
44 2 -3.11213 -27.2015 0 
45 2 -2.53513 -28.1673 0 
46 2 -1.98828 -27.1638 0 
47 2 -1.41159 -28.1307 0 
48 2 -0.8649 -27.1269 0 
49 2 -0.288464 -28.095 0 
51 2 0.834263 -28.0602 0 
53 2 1.95663 -28.0264 0 
55 2 3.07869 -27.9937 0 
57 2 4.20048 -27.9622 0 
59 2 5.32207 -27.9319 0 
61 2 6.4435 -27.9029 0 
63 2 7.56483 -27.8752 0 
65 2 8.68613 -27.8488 0 
67 2 9.80743 -27.8237 0 
69 2 10.9288 -27.8 0 
71 2 12.0503 -27.7775 0 
73 2 13.1719 -27.7563 0 
75 2 14.2937 -27.7363 0 
77 2 15.4157 -27.7174 0 
79 2 16.538 -27.6997 0 
81 2 17.6605 -27.683 0 
83 2 18.7832 -27.6673 0 
85 2 19.9063 -27.6526 0 
87 2 21.0296 -27.6388 0 
89 2 22.1532 -27.6258 0 
91 2 23.2771 -27.6136 0 
93 2 24.4012 -27.6022 0 
95 2 25.5256 -27.5914 0 
97 2 26.6503 -27.5812 0 
99 2 27.7752 -27.5717 0 
101 2 -27.378 -27.0533 0 
103 2 -26.2487 -27.0183 0 
102 2 -26.833 -26.0633 0 
105 2 -25.1194 -26.9828 0 
104 2 -25.7037 -26.0278 0 
107 2 -23.9901 -26.9468 0 
106 2 -24.5742 -25.9918 0 
109 2 -22.8607 -26.9102 0 
108 1 -23.4447 -25.955 0 
111 2 -21.7314 -26.8732 0 
113 2 -20.6021 -26.8357 0 
115 2 -19.4729 -26.7977 0 
117 2 -18.3437 -26.7591 0 
119 2 -17.2147 -26.7202 0 
121 2 -16.0858 -26.6808 0 
123 2 -14.9572 -26.641 0 
125 2 -13.8287 -26.6009 0 
127 2 -12.7006 -26.5605 0 
129 2 -11.5727 -26.5198 0 
131 2 -10.4452 -26.479 0 
133 2 -9.31813 -26.4382 0 
135 2 -8.19146 -26.3973 0 
137 2 -7.06526 -26.3566 0 
139 2 -5.93954 -26.3162 0 
141 2 -4.81433 -26.2762 0 
143 2 -3.68963 -26.2366 0 
145 2 -2.56545 -26.1977 0 
147 2 -1.44177 -26.1596 0 
50 2 0.258046 -27.0909 0 
149 2 -0.318563 -26.1224 0 
52 2 1.38059 -27.056 0 
151 2 0.804196 -26.0862 0 
54 2 2.50279 -27.0222 0 
153 2 1.92656 -26.0512 0 
56 2 3.62468 -26.9896 0 
155 2 3.04857 -26.0174 0 
58 2 4.74633 -26.9582 0 
157 2 4.1703 -25.9849 0 
60 2 5.86779 -26.9282 0 
159 2 5.2918 -25.9538 0 
62 2 6.98913 -26.8996 0 
64 2 8.11041 -26.8723 0 
66 2 9.23169 -26.8465 0 
68 2 10.353 -26.822 0 
70 2 11.4745 -26.7989 0 
72 2 12.596 -26.7771 0 
74 2 13.7178 -26.7566 0 
76 2 14.8398 -26.7373 0 
78 2 15.962 -26.7192 0 
80 2 17.0845 -26.7023 0 
82 2 18.2073 -26.6863 0 
84 2 19.3304 -26.6714 0 
86 2 20.4538 -26.6575 0 
88 2 21.5774 -26.6444 0 
90 2 22.7014 -26.6321 0 
92 2 23.8256 -26.6206 0 
94 2 24.9501 -26.6098 0 
96 2 26.0749 -26.5996 0 
98 2 27.2 -26.5901 0 
100 2 28.3253 -26.5811 0 
201 2 -27.4179 -25.1085 0 
203 2 -26.2885 -25.0731 0 
205 2 -25.159 -25.0372 0 
207 2 -24.0295 -25.0007 0 
209 1 -22.9004 -24.9628 0 
110 1 -22.3158 -25.9176 0 
211 1 -21.7709 -24.9261 0 
112 1 -21.1865 -25.881 0 
213 1 -20.6413 -24.8876 0 
114 1 -20.0567 -25.842 0 
215 1 -19.5122 -24.8469 0 
116 1 -18.9273 -25.8027 0 
217 1 -18.383 -24.8086 0 
118 1 -17.7978 -25.7639 0 
120 1 -16.6687 -25.7248 0 
122 1 -15.5403 -25.6844 0 
124 1 -14.4115 -25.6445 0 
126 1 -13.2835 -25.6033 0 
128 1 -12.1552 -25.5613 0 
130 1 -11.0266 -25.5205 0 
132 1 -9.89928 -25.4784 0 
134 1 -8.77222 -25.4379 0 
136 1 -7.64627 -25.3961 0 
138 1 -6.52113 -25.3547 0 
140 1 -5.39537 -25.3132 0 
142 1 -4.27011 -25.2724 0 
144 1 -3.14561 -25.232 0 
146 1 -2.02206 -25.1934 0 
148 1 -0.89903 -25.154 0 
150 1 0.223579 -25.1175 0 
152 1 1.34686 -25.0813 0 
154 1 2.46958 -25.046 0 
156 1 3.59151 -25.0124 0 
158 1 4.71318 -24.9804 0 
160 1 5.83491 -24.9493 0 
161 2 6.41316 -25.9242 0 
162 1 6.95631 -24.9214 0 
163 2 7.53443 -25.896 0 
164 1 8.07757 -24.8933 0 
165 2 8.65568 -25.8693 0 
167 2 9.77697 -25.844 0 
166 1 9.19921 -24.8686 0 
169 2 10.8984 -25.8202 0 
168 1 10.3211 -24.8431 0 
171 2 12.0199 -25.7978 0 
170 1 11.4434 -24.8212 0 
173 2 13.1416 -25.7768 0 
175 2 14.2636 -25.7571 0 
177 2 15.3858 -25.7386 0 
179 2 16.5083 -25.7213 0 
181 2 17.6311 -25.7052 0 
183 2 18.7543 -25.6901 0 
185 2 19.8777 -25.6759 0 
187 2 21.0014 -25.6627 0 
189 2 22.1254 -25.6504 0 
191 2 23.2498 -25.6388 0 
193 2 24.3744 -25.628 0 
195 2 25.4993 -25.6179 0 
197 2 26.6245 -25.6084 0 
199 2 27.75 -25.5994 0 
202 2 -26.8739 -24.1187 0 
204 2 -25.7444 -24.0828 0 
206 2 -24.6148 -24.0464 0 
208 1 -23.4851 -24.0086 0 
210 1 -22.3556 -23.9709 0 
212 1 -21.2262 -23.9332 0 
214 1 -20.0965 -23.8927 0 
216 1 -18.9667 -23.8531 0 
219 1 -17.2528 -24.7689 0 
218 1 -17.8371 -23.8139 0 
221 1 -16.1243 -24.7277 0 
220 1 -16.7084 -23.7714 0 
222 1 -15.5794 -23.7315 0 
223 1 -14.9954 -24.6882 0 
224 1 -14.4508 -23.6908 0 
225 1 -13.8666 -24.6468 0 
227 1 -12.7386 -24.6046 0 
229 1 -11.6098 -24.563 0 
231 1 -10.4825 -24.5197 0 
233 1 -9.35554 -24.4782 0 
235 1 -8.22927 -24.4363 0 
237 1 -7.10322 -24.3934 0 
239 1 -5.97683 -24.3515 0 
241 1 -4.8511 -24.309 0 
243 1 -3.72692 -24.2673 0 
245 1 -2.60336 -24.2269 0 
247 1 -1.48001 -24.1876 0 
249 1 -0.355648 -24.1488 0 
251 1 0.767845 -24.1122 0 
253 1 1.89048 -24.0751 0 
255 1 3.01241 -24.0405 0 
257 1 4.13383 -24.0069 0 
259 1 5.25523 -23.9757 0 
261 1 6.37734 -23.9462 0 
263 1 7.49882 -23.9178 0 
265 1 8.62146 -23.8922 0 
267 1 9.7431 -23.8673 0 
269 1 10.8654 -23.8438 0 
271 1 11.9875 -23.8214 0 
172 1 12.5653 -24.7988 0 
273 1 13.1109 -23.8009 0 
174 1 13.6873 -24.7789 0 
275 1 14.2335 -23.7817 0 
176 1 14.8099 -24.7603 0 
277 1 15.3562 -23.7634 0 
178 1 15.9327 -24.7422 0 
279 1 16.4794 -23.7469 0 
180 1 17.0558 -24.7262 0 
281 1 17.6029 -23.7304 0 
182 1 18.1789 -24.7107 0 
283 1 18.7265 -23.7159 0 
184 1 19.3024 -24.6962 0 
285 1 19.8505 -23.7016 0 
186 1 20.4262 -24.6818 0 
287 1 20.9748 -23.6886 0 
188 1 21.5508 -24.6695 0 
289 1 22.0998 -23.6766 0 
190 1 22.6752 -24.658 0 
291 1 23.2243 -23.6653 0 
192 1 23.7994 -24.6469 0 
293 1 24.3483 -23.655 0 
194 1 24.924 -24.6358 0 
295 2 25.4729 -23.6443 0 
196 2 26.0488 -24.6264 0 
198 2 27.1745 -24.6176 0 
200 2 28.3003 -24.6093 0 
301 2 -27.4598 -23.1644 0 
303 2 -26.3303 -23.1287 0 
305 2 -25.2007 -23.0924 0 
307 2 -24.071 -23.0555 0 
309 1 -22.941 -23.0164 0 
311 1 -21.8109 -22.9783 0 
313 1 -20.6811 -22.9387 0 
315 1 -19.5512 -22.898 0 
317 1 -18.4215 -22.8587 0 
319 1 -17.2933 -22.8164 0 
321 1 -16.1639 -22.7753 0 
323 1 -15.0349 -22.7348 0 
226 1 -13.3228 -23.6478 0 
325 1 -13.9067 -22.6917 0 
327 1 -12.7772 -22.6499 0 
228 1 -12.194 -23.6066 0 
329 1 -11.6488 -22.6066 0 
230 1 -11.0656 -23.5627 0 
331 1 -10.5214 -22.5612 0 
232 1 -9.93792 -23.5188 0 
333 1 -9.39408 -22.5168 0 
234 1 -8.81143 -23.4762 0 
236 1 -7.68587 -23.4328 0 
238 1 -6.55986 -23.3902 0 
240 1 -5.43442 -23.347 0 
242 1 -4.30935 -23.3041 0 
244 1 -3.1846 -23.2617 0 
246 1 -2.06045 -23.221 0 
248 1 -0.936689 -23.1818 0 
250 1 0.18707 -23.1434 0 
252 1 1.30978 -23.1058 0 
254 1 2.43207 -23.0692 0 
256 1 3.55405 -23.0343 0 
258 1 4.67602 -23.0021 0 
260 1 5.79844 -22.972 0 
262 1 6.92087 -22.9425 0 
264 1 8.0438 -22.9158 0 
266 1 9.1658 -22.8899 0 
268 1 10.2882 -22.8667 0 
270 1 11.4102 -22.8435 0 
272 1 12.5332 -22.8233 0 
274 1 13.6563 -22.8026 0 
276 1 14.7793 -22.7842 0 
278 1 15.9027 -22.767 0 
280 1 17.0262 -22.7509 0 
282 1 18.1498 -22.7344 0 
284 1 19.2739 -22.7214 0 
286 1 20.3981 -22.7072 0 
288 1 21.5226 -22.6956 0 
290 1 22.6475 -22.6838 0 
292 1 23.7726 -22.6728 0 
294 1 24.8969 -22.6628 0 
297 2 26.5987 -23.6355 0 
296 2 26.0228 -22.6533 0 
299 2 27.7248 -23.6273 0 
298 2 27.149 -22.6452 0 
300 2 28.2755 -22.6376 0 
302 2 -26.9167 -22.1747 0 
304 2 -25.7871 -22.1385 0 
306 2 -24.6574 -22.1018 0 
308 1 -23.5271 -22.0631 0 
310 1 -22.3969 -22.024 0 
312 1 -21.2671 -21.9846 0 
314 1 -20.1373 -21.9441 0 
316 1 -19.0068 -21.904 0 
318 1 -17.8782 -21.8617 0 
320 1 -16.7489 -21.8209 0 
322 1 -15.6192 -21.7798 0 
324 1 -14.4906 -21.736 0 
326 1 -13.3613 -21.694 0 
328 1 -12.2324 -21.6502 0 
330 1 -11.1049 -21.6042 0 
332 1 -9.97668 -21.5592 0 
334 1 -8.84938 -21.5129 0 
335 1 -8.2677 -22.4724 0 
336 1 -7.72291 -21.4691 0 
337 1 -7.14092 -22.4295 0 
338 1 -6.59719 -21.4243 0 
339 1 -6.01518 -22.3849 0 
340 1 -5.47116 -21.379 0 
341 1 -4.88989 -22.3417 0 
343 1 -3.76497 -22.2982 0 
345 1 -2.6406 -22.2553 0 
347 1 -1.51726 -22.2145 0 
349 1 -0.393915 -22.1755 0 
351 1 0.729778 -22.1372 0 
353 1 1.8525 -22.0987 0 
355 1 2.97485 -22.0625 0 
357 1 4.09725 -22.0284 0 
359 1 5.21977 -21.9977 0 
361 1 6.34246 -21.9673 0 
363 1 7.46527 -21.9394 0 
365 1 8.58774 -21.9128 0 
367 1 9.71042 -21.8891 0 
369 1 10.8335 -21.8658 0 
371 1 11.9569 -21.8446 0 
373 1 13.0797 -21.8243 0 
375 1 14.203 -21.8048 0 
377 1 15.3268 -21.7871 0 
379 1 16.4509 -21.7708 0 
381 1 17.5743 -21.754 0 
383 1 18.6988 -21.74 0 
385 1 19.8227 -21.7264 0 
387 1 20.9477 -21.7142 0 
389 1 22.0723 -21.7022 0 
391 1 23.197 -21.6911 0 
393 1 24.3215 -21.6798 0 
395 2 25.4466 -21.6709 0 
397 2 26.573 -21.6629 0 
399 2 27.6998 -21.6554 0 
401 2 -27.5037 -21.2208 0 
403 2 -26.3741 -21.1849 0 
402 2 -26.9617 -20.2313 0 
405 2 -25.2445 -21.1483 0 
404 2 -25.8321 -20.1949 0 
407 2 -24.1147 -21.111 0 
409 1 -22.9837 -21.0705 0 
411 1 -21.8535 -21.0314 0 
413 1 -20.7233 -20.9908 0 
415 1 -19.5931 -20.9508 0 
417 1 -18.4635 -20.9082 0 
419 1 -17.3334 -20.8664 0 
421 1 -16.2039 -20.8256 0 
423 1 -15.0747 -20.7818 0 
425 1 -13.9451 -20.7381 0 
427 1 -12.8168 -20.6943 0 
429 1 -11.6888 -20.6474 0 
431 1 -10.5605 -20.602 0 
433 1 -9.43277 -20.555 0 
435 1 -8.3052 -20.5091 0 
437 1 -7.17959 -20.4636 0 
439 1 -6.05394 -20.4176 0 
342 1 -4.34599 -21.3349 0 
441 1 -4.92763 -20.3721 0 
344 1 -3.22146 -21.2905 0 
443 1 -3.80279 -20.3264 0 
346 1 -2.09652 -21.2478 0 
445 1 -2.67781 -20.2824 0 
348 1 -0.972964 -21.2074 0 
447 1 -1.55423 -20.2394 0 
350 1 0.149934 -21.1684 0 
352 1 1.27204 -21.1294 0 
354 1 2.39445 -21.0917 0 
356 1 3.51684 -21.0555 0 
358 1 4.64008 -21.0228 0 
360 1 5.76299 -20.9924 0 
362 1 6.88602 -20.963 0 
364 1 8.00822 -20.9362 0 
366 1 9.13126 -20.9111 0 
368 1 10.2547 -20.8883 0 
370 1 11.3788 -20.866 0 
372 1 12.5024 -20.8454 0 
374 1 13.6254 -20.8254 0 
376 1 14.7488 -20.8072 0 
378 1 15.873 -20.7903 0 
380 1 16.9969 -20.7739 0 
382 1 18.122 -20.759 0 
384 1 19.2465 -20.745 0 
386 1 20.3712 -20.7329 0 
388 1 21.4957 -20.7202 0 
390 1 22.6208 -20.7089 0 
392 1 23.746 -20.6982 0 
394 1 24.8721 -20.6892 0 
396 2 25.9969 -20.6804 0 
398 2 27.1238 -20.673 0 
400 2 28.251 -20.6661 0 
501 2 -27.5497 -19.2779 0 
503 2 -26.4202 -19.2417 0 
505 2 -25.2906 -19.2049 0 
406 2 -24.7023 -20.1579 0 
507 2 -24.1608 -19.1673 0 
408 1 -23.5718 -20.1186 0 
509 1 -23.0296 -19.1263 0 
410 1 -22.4408 -20.0783 0 
511 1 -21.8984 -19.0858 0 
412 1 -21.3102 -20.0382 0 
513 1 -20.7677 -19.0438 0 
414 1 -20.1798 -19.9969 0 
416 1 -19.0501 -19.9555 0 
418 1 -17.9197 -19.9128 0 
420 1 -16.7892 -19.8704 0 
422 1 -15.66 -19.8277 0 
424 1 -14.5301 -19.7836 0 
426 1 -13.4012 -19.7384 0 
428 1 -12.2731 -19.6922 0 
430 1 -11.144 -19.6449 0 
432 1 -10.0166 -19.5974 0 
434 1 -8.88892 -19.5508 0 
436 1 -7.76172 -19.5034 0 
438 1 -6.63517 -19.4567 0 
440 1 -5.50884 -19.4104 0 
442 1 -4.38364 -19.3632 0 
444 1 -3.25925 -19.3181 0 
446 1 -2.13617 -19.2729 0 
448 1 -1.01278 -19.2309 0 
449 1 -0.431678 -20.1997 0 
450 1 0.11043 -19.1907 0 
451 1 0.691064 -20.1601 0 
452 1 1.23369 -19.1506 0 
453 1 1.81381 -20.1219 0 
454 1 2.35634 -19.1126 0 
455 1 2.93655 -20.084 0 
456 1 3.47891 -19.0768 0 
457 1 4.05972 -20.0493 0 
459 1 5.18281 -20.0169 0 
461 1 6.30603 -19.9879 0 
463 1 7.42942 -19.9592 0 
465 1 8.55279 -19.9335 0 
467 1 9.67631 -19.9093 0 
469 1 10.7998 -19.8874 0 
471 1 11.9236 -19.8663 0 
473 1 13.0466 -19.8458 0 
475 1 14.1704 -19.8271 0 
477 1 15.2947 -19.8097 0 
479 1 16.4188 -19.7931 0 
481 1 17.5433 -19.7786 0 
483 1 18.6682 -19.7637 0 
485 1 19.7931 -19.7514 0 
487 1 20.9181 -19.7385 0 
489 1 22.0432 -19.7267 0 
491 1 23.1686 -19.7165 0 
493 1 24.2947 -19.7075 0 
495 2 25.4205 -19.6978 0 
497 2 26.5477 -19.6905 0 
499 2 27.6751 -19.6838 0 
502 2 -27.0088 -18.2886 0 
504 2 -25.8793 -18.252 0 
506 2 -24.7497 -18.2147 0 
508 1 -23.6188 -18.1749 0 
510 1 -22.4876 -18.1339 0 
512 1 -21.3569 -18.0923 0 
514 1 -20.2256 -18.0492 0 
515 1 -19.6374 -19.0017 0 
516 1 -19.0944 -18.0071 0 
517 1 -18.5071 -18.9601 0 
518 1 -17.9641 -17.9652 0 
519 1 -17.376 -18.9168 0 
520 1 -16.8334 -17.9204 0 
521 1 -16.2459 -18.873 0 
523 1 -15.1164 -18.8296 0 
525 1 -13.987 -18.7837 0 
527 1 -12.8582 -18.737 0 
529 1 -11.7287 -18.6901 0 
531 1 -10.6 -18.641 0 
533 1 -9.4716 -18.5934 0 
535 1 -8.34441 -18.545 0 
537 1 -7.21772 -18.4969 0 
539 1 -6.09155 -18.4498 0 
541 1 -4.96601 -18.4014 0 
543 1 -3.84087 -18.3541 0 
545 1 -2.71689 -18.3073 0 
547 1 -1.593 -18.2635 0 
549 1 -0.47017 -18.2212 0 
551 1 0.652412 -18.1801 0 
553 1 1.77505 -18.1408 0 
555 1 2.89772 -18.1038 0 
557 1 4.02058 -18.0694 0 
458 1 4.60149 -19.0431 0 
559 1 5.14445 -18.0377 0 
460 1 5.72555 -19.0125 0 
561 1 6.2677 -18.0067 0 
462 1 6.8491 -18.9828 0 
563 1 7.39218 -17.9786 0 
464 1 7.97315 -18.9562 0 
565 1 8.51645 -17.9529 0 
466 1 9.09659 -18.9312 0 
567 1 9.64069 -17.9299 0 
468 1 10.2203 -18.9081 0 
569 1 10.7643 -17.9074 0 
470 1 11.3441 -18.887 0 
472 1 12.4685 -18.8658 0 
474 1 13.5926 -18.8472 0 
476 1 14.7166 -18.8295 0 
478 1 15.8415 -18.8127 0 
480 1 16.9667 -18.797 0 
482 1 18.0916 -18.7831 0 
484 1 19.2166 -18.7694 0 
486 1 20.3414 -18.7575 0 
488 1 21.4668 -18.7451 0 
490 1 22.5925 -18.7345 0 
492 1 23.719 -18.7257 0 
494 1 24.8451 -18.7162 0 
496 2 25.9714 -18.7078 0 
498 2 27.0991 -18.7012 0 
500 2 28.2271 -18.6951 0 
601 2 -27.5979 -17.3354 0 
603 2 -26.4686 -17.2992 0 
605 2 -25.3391 -17.2621 0 
607 2 -24.2094 -17.2244 0 
609 1 -23.0778 -17.1833 0 
611 1 -21.9464 -17.1411 0 
613 1 -20.8156 -17.0989 0 
615 1 -19.6837 -17.0562 0 
617 1 -18.5522 -17.0129 0 
619 1 -17.4227 -16.9694 0 
522 1 -15.7031 -17.8754 0 
621 1 -16.292 -16.9234 0 
524 1 -14.5741 -17.8298 0 
623 1 -15.1615 -16.876 0 
526 1 -13.4447 -17.7823 0 
625 1 -14.0319 -16.8294 0 
528 1 -12.3148 -17.7352 0 
627 1 -12.9018 -16.7807 0 
530 1 -11.1856 -17.6862 0 
532 1 -10.0566 -17.6381 0 
534 1 -8.92901 -17.5881 0 
536 1 -7.80197 -17.5385 0 
538 1 -6.67478 -17.4898 0 
540 1 -5.54897 -17.4401 0 
542 1 -4.42401 -17.3911 0 
544 1 -3.29976 -17.3425 0 
546 1 -2.175 -17.2974 0 
548 1 -1.05144 -17.2524 0 
550 1 0.0710746 -17.2105 0 
552 1 1.19345 -17.1697 0 
554 1 2.31578 -17.1309 0 
556 1 3.43938 -17.0951 0 
558 1 4.56325 -17.0627 0 
560 1 5.68687 -17.0306 0 
562 1 6.81081 -17.0019 0 
564 1 7.93553 -16.9752 0 
566 1 9.06031 -16.9514 0 
568 1 10.1842 -16.928 0 
571 1 11.8889 -17.8868 0 
570 1 11.3087 -16.9074 0 
573 1 13.0139 -17.8667 0 
572 1 12.4333 -16.8866 0 
575 1 14.1376 -17.8487 0 
574 1 13.5583 -16.8672 0 
577 1 15.2619 -17.8322 0 
576 1 14.6831 -16.8507 0 
579 1 16.3872 -17.8162 0 
578 1 15.8084 -16.835 0 
581 1 17.5134 -17.8016 0 
580 1 16.934 -16.8199 0 
583 1 18.6392 -17.7877 0 
582 1 18.06 -16.806 0 
585 1 19.7646 -17.7757 0 
584 1 19.1864 -16.7931 0 
587 1 20.89 -17.764 0 
586 1 20.3127 -16.7824 0 
589 1 22.0157 -17.7529 0 
588 1 21.439 -16.7713 0 
591 1 23.1425 -17.7438 0 
590 1 22.5655 -16.7619 0 
593 1 24.2691 -17.7343 0 
592 1 23.6925 -16.7526 0 
595 2 25.3948 -17.725 0 
594 1 24.8195 -16.7432 0 
596 2 25.9465 -16.7357 0 
597 2 26.5229 -17.7186 0 
598 2 27.0751 -16.7299 0 
599 2 27.6512 -17.7126 0 
600 2 28.2039 -16.7246 0 
602 2 -27.0583 -16.3463 0 
604 2 -25.929 -16.3096 0 
606 2 -24.7995 -16.2721 0 
608 1 -23.669 -16.2326 0 
610 1 -22.5376 -16.1907 0 
612 1 -21.4066 -16.1481 0 
614 1 -20.275 -16.1061 0 
616 1 -19.1431 -16.0622 0 
618 1 -18.012 -16.0169 0 
620 1 -16.8818 -15.972 0 
622 1 -15.751 -15.9247 0 
624 1 -14.6198 -15.8766 0 
626 1 -13.4897 -15.8284 0 
628 1 -12.3601 -15.7779 0 
629 1 -11.7725 -16.7315 0 
630 1 -11.2298 -15.7294 0 
631 1 -10.6427 -16.6832 0 
632 1 -10.1016 -15.6771 0 
633 1 -9.51476 -16.6321 0 
634 1 -8.97339 -15.6254 0 
635 1 -8.38712 -16.5815 0 
637 1 -7.25955 -16.5314 0 
639 1 -6.13316 -16.4798 0 
641 1 -5.0076 -16.4292 0 
643 1 -3.88364 -16.379 0 
645 1 -2.75892 -16.3321 0 
647 1 -1.6347 -16.2855 0 
649 1 -0.510128 -16.2408 0 
651 1 0.612786 -16.1986 0 
653 1 1.73509 -16.1581 0 
655 1 2.85863 -16.1209 0 
657 1 3.98197 -16.0864 0 
659 1 5.10565 -16.0548 0 
661 1 6.23003 -16.0248 0 
663 1 7.35454 -15.9974 0 
665 1 8.47922 -15.9725 0 
667 1 9.60345 -15.9489 0 
669 1 10.7283 -15.9273 0 
671 1 11.8527 -15.9059 0 
673 1 12.9781 -15.8871 0 
675 1 14.1035 -15.8687 0 
677 1 15.2292 -15.8537 0 
679 1 16.3554 -15.8375 0 
681 1 17.4823 -15.8237 0 
683 1 18.6091 -15.8111 0 
685 1 19.7358 -15.7999 0 
687 1 20.8624 -15.7898 0 
689 1 21.9897 -15.7798 0 
691 1 23.1166 -15.7708 0 
693 1 24.2431 -15.7611 0 
695 2 25.3699 -15.7527 0 
697 2 26.4989 -15.7471 0 
699 2 27.6281 -15.742 0 
701 2 -27.6483 -15.3934 0 
703 2 -26.5193 -15.357 0 
705 2 -25.3901 -15.3199 0 
707 2 -24.2607 -15.282 0 
709 1 -23.1293 -15.2402 0 
711 1 -21.9977 -15.1973 0 
713 1 -20.8665 -15.1546 0 
715 1 -19.7356 -15.1116 0 
717 1 -18.6038 -15.0664 0 
719 1 -17.4718 -15.0201 0 
721 1 -16.3413 -14.9732 0 
723 1 -15.2105 -14.9256 0 
725 1 -14.079 -14.8769 0 
727 1 -12.9487 -14.8261 0 
729 1 -11.8178 -14.7767 0 
731 1 -10.6892 -14.7234 0 
733 1 -9.56096 -14.6708 0 
636 1 -7.84522 -15.5744 0 
735 1 -8.43219 -14.6187 0 
638 1 -6.71883 -15.5215 0 
737 1 -7.30508 -14.564 0 
640 1 -5.59188 -15.4693 0 
739 1 -6.17805 -14.5112 0 
642 1 -4.46636 -15.4168 0 
644 1 -3.34134 -15.3672 0 
646 1 -2.21807 -15.3188 0 
648 1 -1.09432 -15.2728 0 
650 1 0.0294786 -15.2284 0 
652 1 1.15239 -15.1861 0 
654 1 2.27608 -15.1473 0 
656 1 3.39978 -15.1112 0 
658 1 4.52361 -15.079 0 
660 1 5.64782 -15.048 0 
662 1 6.77236 -15.0191 0 
664 1 7.89725 -14.9936 0 
666 1 9.02226 -14.9692 0 
668 1 10.1474 -14.9472 0 
670 1 11.2719 -14.9254 0 
672 1 12.3976 -14.9064 0 
674 1 13.524 -14.8881 0 
676 1 14.6505 -14.8714 0 
678 1 15.7758 -14.8561 0 
680 1 16.9026 -14.8418 0 
682 1 18.0301 -14.8289 0 
684 1 19.1577 -14.8174 0 
686 1 20.2851 -14.8072 0 
688 1 21.4122 -14.7976 0 
690 1 22.5396 -14.7887 0 
692 1 23.6667 -14.7796 0 
694 1 24.7947 -14.771 0 
696 2 25.9226 -14.7642 0 
698 2 27.0521 -14.7592 0 
700 2 28.1818 -14.7547 0 
702 2 -27.11 -14.4044 0 
801 2 -27.7009 -13.4516 0 
704 2 -25.9811 -14.3676 0 
803 2 -26.5724 -13.4152 0 
706 2 -24.852 -14.3301 0 
805 2 -25.4437 -13.3781 0 
708 1 -23.7213 -14.2901 0 
807 2 -24.3146 -13.3401 0 
710 1 -22.5901 -14.2471 0 
809 1 -23.1837 -13.2975 0 
712 1 -21.4586 -14.2039 0 
714 1 -20.327 -14.1602 0 
716 1 -19.1961 -14.1163 0 
718 1 -18.0647 -14.0708 0 
720 1 -16.933 -14.0226 0 
722 1 -15.8015 -13.9745 0 
724 1 -14.67 -13.9264 0 
726 1 -13.5389 -13.8752 0 
728 1 -12.4075 -13.8248 0 
730 1 -11.2781 -13.7713 0 
732 1 -10.1482 -13.7169 0 
734 1 -9.01915 -13.6644 0 
736 1 -7.89219 -13.6082 0 
738 1 -6.76448 -13.5533 0 
740 1 -5.63873 -13.4971 0 
741 1 -5.05227 -14.4561 0 
742 1 -4.51295 -13.4416 0 
743 1 -3.92727 -14.4041 0 
744 1 -3.38818 -13.3885 0 
745 1 -2.80303 -14.3533 0 
746 1 -2.26398 -13.3387 0 
747 1 -1.67888 -14.3052 0 
749 1 -0.555441 -14.2589 0 
751 1 0.567807 -14.2148 0 
753 1 1.69156 -14.1746 0 
755 1 2.8153 -14.1367 0 
757 1 3.93894 -14.1024 0 
759 1 5.06334 -14.0715 0 
761 1 6.18882 -14.042 0 
763 1 7.31449 -14.0148 0 
765 1 8.43941 -13.9895 0 
767 1 9.56518 -13.9672 0 
769 1 10.6914 -13.9453 0 
771 1 11.8181 -13.9253 0 
773 1 12.9445 -13.907 0 
775 1 14.0714 -13.8903 0 
777 1 15.1978 -13.8744 0 
779 1 16.3243 -13.8601 0 
781 1 17.4512 -13.847 0 
783 1 18.5785 -13.835 0 
785 1 19.7063 -13.8249 0 
787 1 20.8341 -13.8148 0 
789 1 21.9619 -13.8062 0 
791 1 23.0899 -13.7979 0 
793 1 24.218 -13.7898 0 
795 2 25.3462 -13.7811 0 
797 2 26.4761 -13.7764 0 
799 2 27.6062 -13.772 0 
802 2 -27.164 -12.4626 0 
804 2 -26.0357 -12.4259 0 
806 2 -24.9071 -12.3884 0 
808 1 -23.777 -12.348 0 
810 1 -22.6462 -12.3049 0 
811 1 -22.0521 -13.2544 0 
812 1 -21.5151 -12.2614 0 
813 1 -20.9204 -13.2106 0 
814 1 -20.3836 -12.217 0 
815 1 -19.7887 -13.1657 0 
816 1 -19.2517 -12.1715 0 
817 1 -18.658 -13.121 0 
818 1 -18.1208 -12.1248 0 
819 1 -17.5273 -13.074 0 
821 1 -16.3948 -13.0254 0 
823 1 -15.2628 -12.976 0 
825 1 -14.1313 -12.9261 0 
827 1 -12.999 -12.8743 0 
829 1 -11.869 -12.8201 0 
831 1 -10.739 -12.7659 0 
833 1 -9.60804 -12.7113 0 
835 1 -8.48012 -12.6538 0 
837 1 -7.35155 -12.5974 0 
839 1 -6.22464 -12.5391 0 
841 1 -5.09926 -12.4818 0 
843 1 -3.97406 -12.4251 0 
845 1 -2.84922 -12.3724 0 
748 1 -1.14053 -13.2897 0 
847 1 -1.72542 -12.3212 0 
849 1 -0.602095 -12.2733 0 
750 1 -0.0165832 -13.2432 0 
851 1 0.52123 -12.2281 0 
752 1 1.10762 -13.201 0 
853 1 1.64468 -12.1875 0 
754 1 2.23164 -13.162 0 
756 1 3.35521 -13.1265 0 
758 1 4.47965 -13.094 0 
760 1 5.60533 -13.0642 0 
762 1 6.73161 -13.0364 0 
764 1 7.85787 -13.0102 0 
766 1 8.98441 -12.9867 0 
768 1 10.1104 -12.9649 0 
770 1 11.2376 -12.9448 0 
772 1 12.3651 -12.9256 0 
774 1 13.4921 -12.9091 0 
776 1 14.6191 -12.8927 0 
778 1 15.7458 -12.8781 0 
780 1 16.8731 -12.8649 0 
782 1 18.0011 -12.8527 0 
784 1 19.1297 -12.8425 0 
786 1 20.2578 -12.8328 0 
788 1 21.3863 -12.8234 0 
790 1 22.5148 -12.8157 0 
792 1 23.6431 -12.8072 0 
794 1 24.7713 -12.7992 0 
796 2 25.9 -12.7934 0 
798 2 27.0306 -12.7893 0 
800 2 28.1612 -12.7854 0 
901 2 -27.7557 -11.5099 0 
903 2 -26.6279 -11.4735 0 
905 2 -25.4997 -11.4364 0 
907 2 -24.3713 -11.3985 0 
909 1 -23.2409 -11.3557 0 
911 1 -22.1101 -11.3123 0 
913 1 -20.9791 -11.2681 0 
915 1 -19.8476 -11.2238 0 
917 1 -18.7157 -11.1769 0 
820 1 -16.9891 -12.078 0 
919 1 -17.5833 -11.1298 0 
822 1 -15.8567 -12.0275 0 
921 1 -16.4521 -11.0809 0 
824 1 -14.7246 -11.9769 0 
923 1 -15.3194 -11.0295 0 
826 1 -13.5932 -11.9262 0 
828 1 -12.462 -11.8712 0 
830 1 -11.3309 -11.8158 0 
832 1 -10.1999 -11.7607 0 
834 1 -9.07074 -11.7015 0 
836 1 -7.94138 -11.6437 0 
838 1 -6.81379 -11.5834 0 
840 1 -5.68769 -11.5237 0 
842 1 -4.56231 -11.4647 0 
844 1 -3.43758 -11.4077 0 
846 1 -2.31358 -11.3549 0 
848 1 -1.18933 -11.3039 0 
850 1 -0.0650664 -11.2565 0 
852 1 1.059 -11.2133 0 
855 1 2.76931 -12.1504 0 
854 1 2.18321 -11.1746 0 
857 1 3.8946 -12.1164 0 
856 1 3.30846 -11.1397 0 
859 1 5.01991 -12.0861 0 
858 1 4.43471 -11.1073 0 
861 1 6.14596 -12.0579 0 
860 1 5.56064 -11.0797 0 
863 1 7.27229 -12.0314 0 
862 1 6.68692 -11.0523 0 
865 1 8.39933 -12.0076 0 
864 1 7.81432 -11.0279 0 
867 1 9.52669 -11.9841 0 
869 1 10.6546 -11.9647 0 
871 1 11.7825 -11.9453 0 
873 1 12.9105 -11.927 0 
875 1 14.038 -11.9114 0 
877 1 15.1656 -11.8955 0 
879 1 16.2933 -11.8827 0 
881 1 17.4216 -11.8707 0 
883 1 18.5511 -11.8603 0 
885 1 19.6798 -11.8505 0 
887 1 20.8087 -11.8416 0 
889 1 21.9384 -11.833 0 
891 1 23.0673 -11.8253 0 
893 1 24.1957 -11.8173 0 
895 2 25.3239 -11.8103 0 
897 2 26.4549 -11.8064 0 
899 2 27.586 -11.8028 0 
902 2 -27.2202 -10.5209 0 
904 2 -26.0925 -10.4842 0 
906 2 -24.9646 -10.4468 0 
908 1 -23.8354 -10.4066 0 
910 1 -22.7054 -10.3635 0 
912 1 -21.5747 -10.3196 0 
914 1 -20.4434 -10.2753 0 
916 1 -19.3123 -10.2297 0 
918 1 -18.1797 -10.1828 0 
920 1 -17.0478 -10.1336 0 
922 1 -15.9164 -10.0837 0 
924 1 -14.7832 -10.0317 0 
925 1 -14.1865 -10.9776 0 
926 1 -13.6507 -9.97679 0 
927 1 -13.0555 -10.9238 0 
928 1 -12.5184 -9.92054 0 
929 1 -11.9241 -10.8676 0 
930 1 -11.3859 -9.8633 0 
931 1 -10.7926 -10.8114 0 
933 1 -9.66275 -10.7513 0 
935 1 -8.53194 -10.6916 0 
937 1 -7.40357 -10.6294 0 
939 1 -6.27647 -10.5672 0 
941 1 -5.15044 -10.5066 0 
943 1 -4.02509 -10.4457 0 
945 1 -2.9005 -10.3887 0 
947 1 -1.77718 -10.3349 0 
949 1 -0.652965 -10.2859 0 
951 1 0.472105 -10.2405 0 
953 1 1.59749 -10.1986 0 
955 1 2.72314 -10.1626 0 
957 1 3.84913 -10.1297 0 
959 1 4.97607 -10.1 0 
961 1 6.1024 -10.0732 0 
963 1 7.23057 -10.0479 0 
965 1 8.35895 -10.0243 0 
866 1 8.94225 -11.0045 0 
967 1 9.48858 -10.0034 0 
868 1 10.0718 -10.9838 0 
969 1 10.6183 -9.98347 0 
870 1 11.2003 -10.965 0 
971 1 11.7478 -9.96607 0 
872 1 12.3285 -10.9461 0 
973 1 12.877 -9.94835 0 
874 1 13.4567 -10.9296 0 
975 1 14.0061 -9.93292 0 
876 1 14.5851 -10.9146 0 
977 1 15.1354 -9.91863 0 
878 1 15.7142 -10.8999 0 
979 1 16.265 -9.90577 0 
880 1 16.843 -10.8881 0 
981 1 17.3948 -9.89561 0 
882 1 17.9728 -10.8785 0 
983 1 18.5249 -9.88646 0 
884 1 19.1025 -10.8681 0 
985 1 19.6554 -9.87741 0 
886 1 20.2317 -10.8596 0 
987 1 20.7853 -9.8693 0 
888 1 21.3614 -10.8516 0 
890 1 22.4915 -10.843 0 
989 1 21.9154 -9.86186 0 
892 1 23.6208 -10.836 0 
991 1 23.0458 -9.85415 0 
894 1 24.7497 -10.829 0 
993 1 24.1749 -9.84726 0 
896 2 25.8793 -10.8234 0 
995 2 25.3037 -9.84035 0 
898 2 27.0108 -10.8201 0 
997 2 26.4357 -9.83726 0 
900 2 28.1423 -10.817 0 
999 2 27.5677 -9.8344 0 
1001 2 -27.8125 -9.56805 0 
1003 2 -26.6854 -9.5318 0 
1005 2 -25.5581 -9.49477 0 
1007 2 -24.4305 -9.45693 0 
1009 1 -23.3012 -9.41426 0 
1011 1 -22.1711 -9.37134 0 
1013 1 -21.04 -9.32721 0 
1015 1 -19.9087 -9.28159 0 
1017 1 -18.7772 -9.2361 0 
1019 1 -17.6451 -9.18763 0 
1021 1 -16.5134 -9.13737 0 
1023 1 -15.3813 -9.08705 0 
1025 1 -14.2489 -9.03223 0 
1027 1 -13.1159 -8.97543 0 
1029 1 -11.9828 -8.91789 0 
932 1 -10.2559 -9.80272 0 
1031 1 -10.8506 -8.85661 0 
934 1 -9.12487 -9.7421 0 
1033 1 -9.71774 -8.79431 0 
936 1 -7.99522 -9.67828 0 
1035 1 -8.58741 -8.72915 0 
938 1 -6.86634 -9.61324 0 
940 1 -5.73924 -9.54928 0 
942 1 -4.61436 -9.4862 0 
944 1 -3.48969 -9.42509 0 
946 1 -2.36594 -9.3666 0 
948 1 -1.24153 -9.31488 0 
950 1 -0.116715 -9.26774 0 
952 1 1.00774 -9.22422 0 
954 1 2.13362 -9.18518 0 
956 1 3.26016 -9.15148 0 
958 1 4.38829 -9.12104 0 
960 1 5.51537 -9.09232 0 
962 1 6.64346 -9.06836 0 
964 1 7.77336 -9.04366 0 
966 1 8.90396 -9.02276 0 
968 1 10.0346 -9.00258 0 
970 1 11.1652 -8.98472 0 
972 1 12.2945 -8.96765 0 
974 1 13.425 -8.95172 0 
976 1 14.555 -8.93695 0 
978 1 15.6854 -8.9238 0 
980 1 16.8155 -8.91259 0 
982 1 17.9456 -8.90361 0 
984 1 19.0763 -8.89588 0 
986 1 20.2074 -8.88758 0 
988 1 21.3384 -8.87991 0 
990 1 22.4689 -8.87215 0 
992 1 23.5992 -8.8652 0 
994 1 24.7295 -8.85868 0 
996 2 25.8608 -8.85435 0 
998 2 26.9933 -8.85174 0 
1000 2 28.1257 -8.84931 0 
1002 2 -27.2783 -8.57905 0 
1101 2 -27.8711 -7.62598 0 
1004 2 -26.1516 -8.54247 0 
1103 2 -26.7449 -7.58983 0 
1006 2 -25.0246 -8.50509 0 
1105 2 -25.6186 -7.5529 0 
1008 1 -23.8965 -8.46487 0 
1107 2 -24.492 -7.51516 0 
1010 1 -22.7672 -8.42231 0 
1012 1 -21.6371 -8.37903 0 
1014 1 -20.5064 -8.33444 0 
1016 1 -19.3749 -8.28866 0 
1018 1 -18.2442 -8.24188 0 
1020 1 -17.1127 -8.19226 0 
1022 1 -15.98 -8.14195 0 
1024 1 -14.8482 -8.08854 0 
1026 1 -13.7153 -8.03288 0 
1028 1 -12.5816 -7.9744 0 
1030 1 -11.4491 -7.91336 0 
1032 1 -10.3158 -7.85069 0 
1034 1 -9.18306 -7.7833 0 
1036 1 -8.05194 -7.71453 0 
1037 1 -7.45848 -8.66238 0 
1038 1 -6.92135 -7.6441 0 
1039 1 -6.33026 -8.59525 0 
1041 1 -5.20359 -8.52799 0 
1043 1 -4.07825 -8.46264 0 
1045 1 -2.9547 -8.40005 0 
1047 1 -1.83043 -8.34495 0 
1049 1 -0.705967 -8.29459 0 
1051 1 0.418625 -8.24888 0 
1053 1 1.54499 -8.20949 0 
1055 1 2.67186 -8.17299 0 
1057 1 3.79997 -8.14209 0 
1059 1 4.92876 -8.1123 0 
1061 1 6.0586 -8.08743 0 
1063 1 7.18852 -8.06402 0 
1065 1 8.32018 -8.04179 0 
1067 1 9.45134 -8.02207 0 
1069 1 10.5826 -8.00335 0 
1071 1 11.7129 -7.98575 0 
1073 1 12.8438 -7.97068 0 
1075 1 13.9754 -7.95503 0 
1077 1 15.1067 -7.94176 0 
1079 1 16.2378 -7.92961 0 
1081 1 17.3688 -7.92021 0 
1083 1 18.5002 -7.91266 0 
1085 1 19.6315 -7.90574 0 
1087 1 20.7628 -7.89793 0 
1089 1 21.8939 -7.89003 0 
1091 1 23.0248 -7.88316 0 
1093 1 24.1554 -7.87692 0 
1095 2 25.2861 -7.87134 0 
1097 2 26.419 -7.86899 0 
1099 2 27.5519 -7.8668 0 
1102 2 -27.3381 -6.63684 0 
1104 2 -26.2124 -6.60035 0 
1106 2 -25.0865 -6.56307 0 
1108 1 -23.9599 -6.52373 0 
1109 1 -23.3635 -7.4733 0 
1110 1 -22.8315 -6.4821 0 
1111 1 -22.2344 -7.43044 0 
1112 1 -21.7025 -6.4383 0 
1113 1 -21.1049 -7.38661 0 
1114 1 -20.5734 -6.39465 0 
1115 1 -19.9745 -7.34244 0 
1116 1 -19.4442 -6.34905 0 
1117 1 -18.8437 -7.29522 0 
1119 1 -17.7127 -7.24713 0 
1121 1 -16.5811 -7.19787 0 
1123 1 -15.4491 -7.14517 0 
1125 1 -14.3164 -7.09078 0 
1127 1 -13.1834 -7.03379 0 
1129 1 -12.0496 -6.97222 0 
1131 1 -10.9149 -6.90854 0 
1133 1 -9.7816 -6.841 0 
1135 1 -8.64931 -6.77042 0 
1137 1 -7.51819 -6.69803 0 
1139 1 -6.38917 -6.62153 0 
1040 1 -5.79441 -7.5724 0 
1141 1 -5.26199 -6.54606 0 
1042 1 -4.66949 -7.50318 0 
1143 1 -4.13806 -6.4731 0 
1044 1 -3.54526 -7.43538 0 
1046 1 -2.42073 -7.37556 0 
1048 1 -1.29652 -7.32173 0 
1050 1 -0.171181 -7.27362 0 
1052 1 0.955614 -7.23293 0 
1054 1 2.08318 -7.19512 0 
1056 1 3.21184 -7.1625 0 
1058 1 4.34104 -7.13264 0 
1060 1 5.47154 -7.10665 0 
1062 1 6.60195 -7.0833 0 
1064 1 7.73378 -7.06213 0 
1066 1 8.8664 -7.04095 0 
1068 1 9.99868 -7.02244 0 
1070 1 11.1303 -7.00375 0 
1072 1 12.2618 -6.98856 0 
1074 1 13.3932 -6.97388 0 
1076 1 14.5257 -6.95955 0 
1078 1 15.6573 -6.94736 0 
1080 1 16.7897 -6.93697 0 
1082 1 17.9222 -6.929 0 
1084 1 19.0543 -6.92233 0 
1086 1 20.1857 -6.9153 0 
1088 1 21.3174 -6.90838 0 
1090 1 22.4496 -6.90147 0 
1092 1 23.5813 -6.89522 0 
1094 1 24.7134 -6.88996 0 
1096 2 25.8451 -6.88616 0 
1098 2 26.9784 -6.88422 0 
1100 2 28.1116 -6.88241 0 
1201 2 -27.9311 -5.68349 0 
1203 2 -26.806 -5.64742 0 