ITEM: TIMESTEP
1400
ITEM: NUMBER OF ATOMS
2850
ITEM: BOX BOUNDS ff ff pp
-42.092 42.092
-42.092 42.092
-0.280613 0.280613
ITEM: ATOMS id type xu yu zu 
1 2 -27.3398 -28.9988 0 
3 2 -26.2107 -28.9642 0 
5 2 -25.0816 -28.9291 0 
7 2 -23.9525 -28.8936 0 
9 2 -22.8235 -28.8577 0 
11 2 -21.6944 -28.8213 0 
13 2 -20.5655 -28.7844 0 
15 2 -19.4366 -28.7472 0 
17 2 -18.3079 -28.7095 0 
19 2 -17.1793 -28.6715 0 
21 2 -16.0508 -28.6331 0 
23 2 -14.9226 -28.5944 0 
25 2 -13.7947 -28.5554 0 
27 2 -12.667 -28.5163 0 
29 2 -11.5396 -28.477 0 
31 2 -10.4126 -28.4376 0 
33 2 -9.28592 -28.3982 0 
35 2 -8.15967 -28.3589 0 
37 2 -7.03386 -28.3198 0 
39 2 -5.90848 -28.281 0 
2 2 -26.7941 -28.0086 0 
4 2 -25.6649 -27.9736 0 
6 2 -24.5357 -27.9381 0 
8 2 -23.4065 -27.902 0 
10 2 -22.2773 -27.8656 0 
12 2 -21.1481 -27.8286 0 
14 2 -20.019 -27.7912 0 
16 2 -18.89 -27.7533 0 
18 2 -17.7611 -27.715 0 
20 2 -16.6324 -27.6763 0 
22 2 -15.5039 -27.6373 0 
24 2 -14.3755 -27.5979 0 
26 2 -13.2475 -27.5582 0 
28 2 -12.1197 -27.5183 0 
30 2 -10.9923 -27.4783 0 
32 2 -9.86522 -27.4382 0 
34 2 -8.73856 -27.3981 0 
36 2 -7.61233 -27.3581 0 
38 2 -6.48656 -27.3184 0 
40 2 -5.36126 -27.2789 0 
41 2 -4.78357 -28.2426 0 
42 2 -4.23645 -27.24 0 
43 2 -3.65912 -28.2046 0 
44 2 -3.11213 -27.2015 0 
45 2 -2.53513 -28.1673 0 
46 2 -1.98828 -27.1638 0 
47 2 -1.41159 -28.1307 0 
48 2 -0.8649 -27.1269 0 
49 2 -0.288464 -28.095 0 
51 2 0.834263 -28.0602 0 
53 2 1.95663 -28.0264 0 
55 2 3.07869 -27.9937 0 
57 2 4.20048 -27.9622 0 
59 2 5.32207 -27.9319 0 
61 2 6.4435 -27.9029 0 
63 2 7.56483 -27.8752 0 
65 2 8.68613 -27.8488 0 
67 2 9.80743 -27.8237 0 
69 2 10.9288 -27.8 0 
71 2 12.0503 -27.7775 0 
73 2 13.1719 -27.7563 0 
75 2 14.2937 -27.7363 0 
77 2 15.4157 -27.7174 0 
79 2 16.538 -27.6997 0 
81 2 17.6605 -27.683 0 
83 2 18.7832 -27.6673 0 
85 2 19.9063 -27.6526 0 
87 2 21.0296 -27.6388 0 
89 2 22.1532 -27.6258 0 
91 2 23.2771 -27.6136 0 
93 2 24.4012 -27.6022 0 
95 2 25.5256 -27.5914 0 
97 2 26.6503 -27.5812 0 
99 2 27.7752 -27.5717 0 
101 2 -27.378 -27.0533 0 
103 2 -26.2487 -27.0183 0 
102 2 -26.833 -26.0633 0 
105 2 -25.1194 -26.9828 0 
104 2 -25.7037 -26.0278 0 
107 2 -23.9901 -26.9468 0 
106 2 -24.5742 -25.9918 0 
109 2 -22.8607 -26.9102 0 
108 1 -23.444 -25.9539 0 
111 2 -21.7314 -26.8732 0 
113 2 -20.6021 -26.8357 0 
115 2 -19.4729 -26.7977 0 
117 2 -18.3437 -26.7591 0 
119 2 -17.2147 -26.7202 0 
121 2 -16.0858 -26.6808 0 
123 2 -14.9572 -26.641 0 
125 2 -13.8287 -26.6009 0 
127 2 -12.7006 -26.5605 0 
129 2 -11.5727 -26.5198 0 
131 2 -10.4452 -26.479 0 
133 2 -9.31813 -26.4382 0 
135 2 -8.19146 -26.3973 0 
137 2 -7.06526 -26.3566 0 
139 2 -5.93954 -26.3162 0 
141 2 -4.81433 -26.2762 0 
143 2 -3.68963 -26.2366 0 
145 2 -2.56545 -26.1977 0 
147 2 -1.44177 -26.1596 0 
50 2 0.258046 -27.0909 0 
149 2 -0.318563 -26.1224 0 
52 2 1.38059 -27.056 0 
151 2 0.804196 -26.0862 0 
54 2 2.50279 -27.0222 0 
153 2 1.92656 -26.0512 0 
56 2 3.62468 -26.9896 0 
155 2 3.04857 -26.0174 0 
58 2 4.74633 -26.9582 0 
157 2 4.1703 -25.9849 0 
60 2 5.86779 -26.9282 0 
159 2 5.2918 -25.9538 0 
62 2 6.98913 -26.8996 0 
64 2 8.11041 -26.8723 0 
66 2 9.23169 -26.8465 0 
68 2 10.353 -26.822 0 
70 2 11.4745 -26.7989 0 
72 2 12.596 -26.7771 0 
74 2 13.7178 -26.7566 0 
76 2 14.8398 -26.7373 0 
78 2 15.962 -26.7192 0 
80 2 17.0845 -26.7023 0 
82 2 18.2073 -26.6863 0 
84 2 19.3304 -26.6714 0 
86 2 20.4538 -26.6575 0 
88 2 21.5774 -26.6444 0 
90 2 22.7014 -26.6321 0 
92 2 23.8256 -26.6206 0 
94 2 24.9501 -26.6098 0 
96 2 26.0749 -26.5996 0 
98 2 27.2 -26.5901 0 
100 2 28.3253 -26.5811 0 
201 2 -27.4179 -25.1085 0 
203 2 -26.2885 -25.0731 0 
205 2 -25.159 -25.0372 0 
207 2 -24.0295 -25.0007 0 
209 1 -22.8984 -24.9605 0 
110 1 -22.3146 -25.9156 0 
211 1 -21.7686 -24.9224 0 
112 1 -21.1847 -25.878 0 
213 1 -20.6385 -24.8845 0 
114 1 -20.0551 -25.8398 0 
215 1 -19.509 -24.8452 0 
116 1 -18.9257 -25.8013 0 
217 1 -18.3802 -24.8058 0 
118 1 -17.7962 -25.7621 0 
120 1 -16.6667 -25.7228 0 
122 1 -15.538 -25.6837 0 
124 1 -14.4103 -25.643 0 
126 1 -13.2819 -25.6019 0 
128 1 -12.154 -25.56 0 
130 1 -11.0266 -25.5178 0 
132 1 -9.89835 -25.477 0 
134 1 -8.77072 -25.4366 0 
136 1 -7.64637 -25.3943 0 
138 1 -6.522 -25.3548 0 
140 1 -5.39587 -25.3143 0 
142 1 -4.2706 -25.2742 0 
144 1 -3.14696 -25.2349 0 
146 1 -2.02362 -25.1943 0 
148 1 -0.900695 -25.1552 0 
150 1 0.221774 -25.1193 0 
152 1 1.34439 -25.0827 0 
154 1 2.46571 -25.0472 0 
156 1 3.58775 -25.0139 0 
158 1 4.71006 -24.9818 0 
160 1 5.83191 -24.9516 0 
161 2 6.41316 -25.9242 0 
162 1 6.95298 -24.9217 0 
163 2 7.53443 -25.896 0 
164 1 8.07438 -24.8959 0 
165 2 8.65568 -25.8693 0 
167 2 9.77697 -25.844 0 
166 1 9.19546 -24.8699 0 
169 2 10.8984 -25.8202 0 
168 1 10.3172 -24.8441 0 
171 2 12.0199 -25.7978 0 
170 1 11.4393 -24.8213 0 
173 2 13.1416 -25.7768 0 
175 2 14.2636 -25.7571 0 
177 2 15.3858 -25.7386 0 
179 2 16.5083 -25.7213 0 
181 2 17.6311 -25.7052 0 
183 2 18.7543 -25.6901 0 
185 2 19.8777 -25.6759 0 
187 2 21.0014 -25.6627 0 
189 2 22.1254 -25.6504 0 
191 2 23.2498 -25.6388 0 
193 2 24.3744 -25.628 0 
195 2 25.4993 -25.6179 0 
197 2 26.6245 -25.6084 0 
199 2 27.75 -25.5994 0 
202 2 -26.8739 -24.1187 0 
204 2 -25.7444 -24.0828 0 
206 2 -24.6148 -24.0464 0 
208 1 -23.4853 -24.009 0 
210 1 -22.3539 -23.9688 0 
212 1 -21.2219 -23.9312 0 
214 1 -20.0907 -23.8914 0 
216 1 -18.9615 -23.8496 0 
219 1 -17.2501 -24.7661 0 
218 1 -17.8332 -23.8098 0 
221 1 -16.1197 -24.7262 0 
220 1 -16.7035 -23.7704 0 
222 1 -15.5739 -23.7293 0 
223 1 -14.9914 -24.6858 0 
224 1 -14.4469 -23.6869 0 
225 1 -13.8656 -24.6446 0 
227 1 -12.7406 -24.6021 0 
229 1 -11.6127 -24.5593 0 
231 1 -10.484 -24.5163 0 
233 1 -9.35686 -24.4763 0 
235 1 -8.23211 -24.4339 0 
237 1 -7.10747 -24.3927 0 
239 1 -5.98256 -24.3533 0 
241 1 -4.85689 -24.312 0 
243 1 -3.73068 -24.2701 0 
245 1 -2.6076 -24.2283 0 
247 1 -1.48573 -24.1891 0 
249 1 -0.362436 -24.1508 0 
251 1 0.760284 -24.114 0 
253 1 1.88281 -24.077 0 
255 1 3.00575 -24.0419 0 
257 1 4.12934 -24.0088 0 
259 1 5.25133 -23.9793 0 
261 1 6.37271 -23.9477 0 
263 1 7.4946 -23.92 0 
265 1 8.616 -23.894 0 
267 1 9.73819 -23.8687 0 
269 1 10.8605 -23.845 0 
271 1 11.9823 -23.8222 0 
172 1 12.5619 -24.7991 0 
273 1 13.1059 -23.8025 0 
174 1 13.6863 -24.7808 0 
275 1 14.2304 -23.7832 0 
176 1 14.8107 -24.7601 0 
277 1 15.356 -23.761 0 
178 1 15.9332 -24.7398 0 
279 1 16.4808 -23.7443 0 
180 1 17.0559 -24.7249 0 
281 1 17.6035 -23.7302 0 
182 1 18.1794 -24.7102 0 
283 1 18.7263 -23.7136 0 
184 1 19.3011 -24.6944 0 
285 1 19.8498 -23.6995 0 
186 1 20.4232 -24.6818 0 
287 1 20.9735 -23.6874 0 
188 1 21.5467 -24.6681 0 
289 1 22.0977 -23.6763 0 
190 1 22.6717 -24.6572 0 
291 1 23.2227 -23.6673 0 
192 1 23.7974 -24.6482 0 
293 1 24.3481 -23.6567 0 
194 1 24.9228 -24.6385 0 
295 2 25.4729 -23.6443 0 
196 2 26.0488 -24.6264 0 
198 2 27.1745 -24.6176 0 
200 2 28.3003 -24.6093 0 
301 2 -27.4598 -23.1644 0 
303 2 -26.3303 -23.1287 0 
305 2 -25.2007 -23.0924 0 
307 2 -24.071 -23.0555 0 
309 1 -22.9404 -23.017 0 
311 1 -21.8076 -22.979 0 
313 1 -20.6756 -22.9396 0 
315 1 -19.5445 -22.8967 0 
317 1 -18.4139 -22.8538 0 
319 1 -17.2847 -22.8138 0 
321 1 -16.1568 -22.7729 0 
323 1 -15.0291 -22.7307 0 
226 1 -13.3217 -23.6441 0 
325 1 -13.9012 -22.6882 0 
327 1 -12.7736 -22.6445 0 
228 1 -12.1958 -23.6022 0 
329 1 -11.6473 -22.6008 0 
230 1 -11.0684 -23.5591 0 
331 1 -10.5215 -22.558 0 
232 1 -9.94055 -23.5165 0 
333 1 -9.39534 -22.5146 0 
234 1 -8.81539 -23.4736 0 
236 1 -7.69042 -23.4312 0 
238 1 -6.56521 -23.3899 0 
240 1 -5.44043 -23.348 0 
242 1 -4.31668 -23.307 0 
244 1 -3.19335 -23.2638 0 
246 1 -2.06996 -23.223 0 
248 1 -0.946691 -23.1844 0 
250 1 0.177112 -23.1452 0 
252 1 1.30087 -23.109 0 
254 1 2.42386 -23.0717 0 
256 1 3.54726 -23.0375 0 
258 1 4.67067 -23.0049 0 
260 1 5.79269 -22.9749 0 
262 1 6.91575 -22.945 0 
264 1 8.03886 -22.9185 0 
266 1 9.16165 -22.8931 0 
268 1 10.2846 -22.8677 0 
270 1 11.4071 -22.845 0 
272 1 12.5306 -22.8229 0 
274 1 13.6525 -22.8033 0 
276 1 14.7741 -22.7846 0 
278 1 15.8998 -22.7657 0 
280 1 17.0254 -22.7496 0 
282 1 18.1487 -22.7335 0 
284 1 19.2708 -22.7176 0 
286 1 20.394 -22.7058 0 
288 1 21.5187 -22.6951 0 
290 1 22.6455 -22.685 0 
292 1 23.7719 -22.6748 0 
294 1 24.8973 -22.6622 0 
297 2 26.5987 -23.6355 0 
296 2 26.0228 -22.6533 0 
299 2 27.7248 -23.6273 0 
298 2 27.149 -22.6452 0 
300 2 28.2755 -22.6376 0 
302 2 -26.9167 -22.1747 0 
304 2 -25.7871 -22.1385 0 
306 2 -24.6574 -22.1018 0 
308 1 -23.5272 -22.0641 0 
310 1 -22.3947 -22.0263 0 
312 1 -21.2634 -21.9871 0 
314 1 -20.1327 -21.9455 0 
316 1 -19.002 -21.9023 0 
318 1 -17.8711 -21.8602 0 
320 1 -16.7416 -21.8187 0 
322 1 -15.6119 -21.7761 0 
324 1 -14.483 -21.7334 0 
326 1 -13.3556 -21.6891 0 
328 1 -12.2285 -21.6423 0 
330 1 -11.1015 -21.5981 0 
332 1 -9.97521 -21.5552 0 
334 1 -8.84909 -21.5114 0 
335 1 -8.26941 -22.4701 0 
336 1 -7.72403 -21.4674 0 
337 1 -7.14535 -22.4268 0 
338 1 -6.60115 -21.4238 0 
339 1 -6.02227 -22.3851 0 
340 1 -5.47907 -21.3807 0 
341 1 -4.89843 -22.3424 0 
343 1 -3.77431 -22.3004 0 
345 1 -2.65087 -22.2583 0 
347 1 -1.52817 -22.217 0 
349 1 -0.405835 -22.1766 0 
351 1 0.718019 -22.1403 0 
353 1 1.84182 -22.1024 0 
355 1 2.96602 -22.0659 0 
357 1 4.08914 -22.0329 0 
359 1 5.21225 -22.0013 0 
361 1 6.33544 -21.9708 0 
363 1 7.45895 -21.9433 0 
365 1 8.58217 -21.9181 0 
367 1 9.706 -21.8935 0 
369 1 10.8306 -21.8667 0 
371 1 11.9538 -21.8448 0 
373 1 13.0768 -21.8227 0 
375 1 14.1983 -21.8048 0 
377 1 15.3222 -21.789 0 
379 1 16.4484 -21.7704 0 
381 1 17.5721 -21.7519 0 
383 1 18.6939 -21.737 0 
385 1 19.817 -21.7241 0 
387 1 20.9407 -21.7109 0 
389 1 22.0665 -21.702 0 
391 1 23.1929 -21.6913 0 
393 1 24.3186 -21.6794 0 
395 2 25.4466 -21.6709 0 
397 2 26.573 -21.6629 0 
399 2 27.6998 -21.6554 0 
401 2 -27.5037 -21.2208 0 
403 2 -26.3741 -21.1849 0 
402 2 -26.9617 -20.2313 0 
405 2 -25.2445 -21.1483 0 
404 2 -25.8321 -20.1949 0 
407 2 -24.1147 -21.111 0 
409 1 -22.9836 -21.0746 0 
411 1 -21.8521 -21.0346 0 
413 1 -20.7214 -20.994 0 
415 1 -19.5911 -20.951 0 
417 1 -18.4605 -20.9095 0 
419 1 -17.3289 -20.8675 0 
421 1 -16.1981 -20.8245 0 
423 1 -15.0686 -20.7795 0 
425 1 -13.9407 -20.7335 0 
427 1 -12.8131 -20.6866 0 
429 1 -11.6848 -20.6399 0 
431 1 -10.5578 -20.5957 0 
433 1 -9.43159 -20.5535 0 
435 1 -8.30601 -20.5084 0 
437 1 -7.18216 -20.4641 0 
439 1 -6.0587 -20.4201 0 
342 1 -4.35579 -21.3381 0 
441 1 -4.93561 -20.3756 0 
344 1 -3.2326 -21.2932 0 
443 1 -3.81429 -20.3293 0 
346 1 -2.10988 -21.2495 0 
445 1 -2.69214 -20.2839 0 
348 1 -0.986914 -21.208 0 
447 1 -1.56829 -20.2417 0 
350 1 0.136854 -21.1692 0 
352 1 1.25871 -21.1304 0 
354 1 2.38215 -21.0923 0 
356 1 3.50571 -21.059 0 
358 1 4.62892 -21.0286 0 
360 1 5.75285 -20.9978 0 
362 1 6.87712 -20.9693 0 
364 1 8.00145 -20.9421 0 
366 1 9.12523 -20.9166 0 
368 1 10.2483 -20.8924 0 
370 1 11.3734 -20.8665 0 
372 1 12.4977 -20.845 0 
374 1 13.6214 -20.824 0 
376 1 14.7458 -20.8086 0 
378 1 15.8702 -20.7932 0 
380 1 16.9942 -20.7723 0 
382 1 18.1175 -20.7559 0 
384 1 19.2408 -20.7445 0 
386 1 20.3667 -20.7293 0 
388 1 21.4934 -20.7163 0 
390 1 22.6179 -20.7065 0 
392 1 23.7415 -20.6955 0 
394 1 24.8679 -20.6877 0 
396 2 25.9969 -20.6804 0 
398 2 27.1238 -20.673 0 
400 2 28.251 -20.6661 0 
501 2 -27.5497 -19.2779 0 
503 2 -26.4202 -19.2417 0 
505 2 -25.2906 -19.2049 0 
406 2 -24.7023 -20.1579 0 
507 2 -24.1608 -19.1673 0 
408 1 -23.5715 -20.1211 0 
509 1 -23.03 -19.1311 0 
410 1 -22.4421 -20.0837 0 
511 1 -21.8991 -19.0932 0 
412 1 -21.3112 -20.0437 0 
513 1 -20.7672 -19.0525 0 
414 1 -20.179 -20.0011 0 
416 1 -19.0472 -19.9575 0 
418 1 -17.9162 -19.9159 0 
420 1 -16.7858 -19.8727 0 
422 1 -15.6559 -19.8266 0 
424 1 -14.5278 -19.7789 0 
426 1 -13.3995 -19.7325 0 
428 1 -12.2702 -19.6866 0 
430 1 -11.1412 -19.6401 0 
432 1 -10.015 -19.5944 0 
434 1 -8.89158 -19.5507 0 
436 1 -7.76548 -19.505 0 
438 1 -6.6401 -19.4586 0 
440 1 -5.51732 -19.4128 0 
442 1 -4.39558 -19.3647 0 
444 1 -3.2722 -19.3198 0 
446 1 -2.14793 -19.2759 0 
448 1 -1.02677 -19.2329 0 
449 1 -0.445112 -20.2012 0 
450 1 0.0935444 -19.1909 0 
451 1 0.676216 -20.1593 0 
452 1 1.21659 -19.1512 0 
453 1 1.7986 -20.1207 0 
454 1 2.33983 -19.1135 0 
455 1 2.9221 -20.085 0 
456 1 3.4632 -19.0794 0 
457 1 4.045 -20.0534 0 
459 1 5.16988 -20.0239 0 
461 1 6.29585 -19.9954 0 
463 1 7.42012 -19.9683 0 
465 1 8.54513 -19.94 0 
467 1 9.67145 -19.9151 0 
469 1 10.7967 -19.8912 0 
471 1 11.9218 -19.8669 0 
473 1 13.0444 -19.8458 0 
475 1 14.169 -19.8276 0 
477 1 15.2927 -19.8118 0 
479 1 16.4147 -19.7955 0 
481 1 17.5397 -19.7769 0 
483 1 18.6641 -19.7624 0 
485 1 19.7884 -19.7507 0 
487 1 20.9153 -19.7356 0 
489 1 22.0424 -19.7227 0 
491 1 23.1674 -19.711 0 
493 1 24.2938 -19.7034 0 
495 2 25.4205 -19.6978 0 
497 2 26.5477 -19.6905 0 
499 2 27.6751 -19.6838 0 
502 2 -27.0088 -18.2886 0 
504 2 -25.8793 -18.252 0 
506 2 -24.7497 -18.2147 0 
508 1 -23.6196 -18.1782 0 
510 1 -22.4885 -18.1414 0 
512 1 -21.3566 -18.1016 0 
514 1 -20.226 -18.0566 0 
515 1 -19.6356 -19.0066 0 
516 1 -19.0947 -18.0104 0 
517 1 -18.505 -18.9625 0 
518 1 -17.9641 -17.9651 0 
519 1 -17.3751 -18.9187 0 
520 1 -16.8333 -17.9205 0 
521 1 -16.2453 -18.874 0 
523 1 -15.1159 -18.8254 0 
525 1 -13.9864 -18.7791 0 
527 1 -12.8567 -18.7338 0 
529 1 -11.7291 -18.6863 0 
531 1 -10.602 -18.6383 0 
533 1 -9.47461 -18.5919 0 
535 1 -8.34966 -18.548 0 
537 1 -7.22436 -18.5 0 
539 1 -6.09963 -18.4501 0 
541 1 -4.97692 -18.4022 0 
543 1 -3.85237 -18.3556 0 
545 1 -2.7288 -18.3107 0 
547 1 -1.60641 -18.2644 0 
549 1 -0.48365 -18.2218 0 
551 1 0.63931 -18.1803 0 
553 1 1.76047 -18.1405 0 
555 1 2.88312 -18.1072 0 
557 1 4.00742 -18.0755 0 
458 1 4.58817 -19.0483 0 
559 1 5.13324 -18.0457 0 
460 1 5.71409 -19.0208 0 
561 1 6.2586 -18.0207 0 
462 1 6.83988 -18.9942 0 
563 1 7.38505 -17.993 0 
464 1 7.96511 -18.9666 0 
565 1 8.51261 -17.9654 0 
466 1 9.09176 -18.9408 0 
567 1 9.63819 -17.9394 0 
468 1 10.2181 -18.9148 0 
569 1 10.7637 -17.9139 0 
470 1 11.3449 -18.8896 0 
472 1 12.4704 -18.8672 0 
474 1 13.5936 -18.8493 0 
476 1 14.7173 -18.8304 0 
478 1 15.8408 -18.8148 0 
480 1 16.9652 -18.8007 0 
482 1 18.0912 -18.783 0 
484 1 19.2165 -18.7688 0 
486 1 20.3397 -18.7555 0 
488 1 21.4641 -18.7424 0 
490 1 22.5885 -18.7285 0 
492 1 23.7153 -18.7197 0 
494 1 24.8427 -18.7127 0 
496 2 25.9714 -18.7078 0 
498 2 27.0991 -18.7012 0 
500 2 28.2271 -18.6951 0 
601 2 -27.5979 -17.3354 0 
603 2 -26.4686 -17.2992 0 
605 2 -25.3391 -17.2621 0 
607 2 -24.2094 -17.2244 0 
609 1 -23.0793 -17.1887 0 
611 1 -21.9484 -17.1501 0 
613 1 -20.8177 -17.1057 0 
615 1 -19.6862 -17.0602 0 
617 1 -18.5535 -17.0144 0 
619 1 -17.4209 -16.9686 0 
522 1 -15.7029 -17.8733 0 
621 1 -16.2889 -16.9221 0 
524 1 -14.5728 -17.8261 0 
623 1 -15.1579 -16.8736 0 
526 1 -13.4433 -17.7797 0 
625 1 -14.0289 -16.8259 0 
528 1 -12.3159 -17.7306 0 
627 1 -12.9009 -16.7755 0 
530 1 -11.1883 -17.6818 0 
532 1 -10.0597 -17.6358 0 
534 1 -8.93327 -17.5895 0 
536 1 -7.80929 -17.5422 0 
538 1 -6.68494 -17.4918 0 
540 1 -5.55935 -17.442 0 
542 1 -4.43474 -17.3944 0 
544 1 -3.31012 -17.3464 0 
546 1 -2.18605 -17.2987 0 
548 1 -1.06244 -17.2545 0 
550 1 0.0604859 -17.2102 0 
552 1 1.18341 -17.1676 0 
554 1 2.30744 -17.1335 0 
556 1 3.43154 -17.101 0 
558 1 4.55721 -17.0712 0 
560 1 5.68302 -17.0438 0 
562 1 6.80652 -17.0176 0 
564 1 7.93244 -16.99 0 
566 1 9.06035 -16.9633 0 
568 1 10.1871 -16.9376 0 
571 1 11.8896 -17.8902 0 
570 1 11.312 -16.9127 0 
573 1 13.0151 -17.8696 0 
572 1 12.4349 -16.8907 0 
575 1 14.1397 -17.8526 0 
574 1 13.5596 -16.8709 0 
577 1 15.2636 -17.8344 0 
576 1 14.6838 -16.855 0 
579 1 16.3871 -17.8197 0 
578 1 15.8089 -16.8385 0 
581 1 17.5118 -17.8062 0 
580 1 16.9326 -16.8237 0 
583 1 18.6378 -17.789 0 
582 1 18.0571 -16.8103 0 
585 1 19.7632 -17.7733 0 
584 1 19.1849 -16.7942 0 
587 1 20.8883 -17.7616 0 
586 1 20.3118 -16.7798 0 
589 1 22.0134 -17.7463 0 
588 1 21.4371 -16.7669 0 
591 1 23.1389 -17.7359 0 
590 1 22.5654 -16.7531 0 
593 1 24.2657 -17.7286 0 
592 1 23.6925 -16.7455 0 
595 2 25.3948 -17.725 0 
594 1 24.8199 -16.741 0 
596 2 25.9465 -16.7357 0 
597 2 26.5229 -17.7186 0 
598 2 27.0751 -16.7299 0 
599 2 27.6512 -17.7126 0 
600 2 28.2039 -16.7246 0 
602 2 -27.0583 -16.3463 0 
604 2 -25.929 -16.3096 0 
606 2 -24.7995 -16.2721 0 
608 1 -23.6698 -16.235 0 
610 1 -22.5396 -16.198 0 
612 1 -21.409 -16.1562 0 
614 1 -20.2773 -16.1103 0 
616 1 -19.1441 -16.0653 0 
618 1 -18.0112 -16.0186 0 
620 1 -16.8787 -15.972 0 
622 1 -15.7469 -15.9236 0 
624 1 -14.6158 -15.8739 0 
626 1 -13.4861 -15.8226 0 
628 1 -12.3569 -15.7723 0 
629 1 -11.7723 -16.726 0 
630 1 -11.2279 -15.7237 0 
631 1 -10.6436 -16.6791 0 
632 1 -10.1009 -15.6744 0 
633 1 -9.51664 -16.6309 0 
634 1 -8.97352 -15.6242 0 
635 1 -8.39199 -16.5827 0 
637 1 -7.26628 -16.5334 0 
639 1 -6.14054 -16.4841 0 
641 1 -5.01601 -16.4342 0 
643 1 -3.8918 -16.3835 0 
645 1 -2.76771 -16.3352 0 
647 1 -1.6433 -16.2885 0 
649 1 -0.521163 -16.2419 0 
651 1 0.601723 -16.1969 0 
653 1 1.72629 -16.1592 0 
655 1 2.85099 -16.1252 0 
657 1 3.97724 -16.0948 0 
659 1 5.10331 -16.0677 0 
661 1 6.22869 -16.0404 0 
663 1 7.35307 -16.0139 0 
665 1 8.47861 -15.9871 0 
667 1 9.60371 -15.9599 0 
669 1 10.7302 -15.9358 0 
671 1 11.8543 -15.9111 0 
673 1 12.9784 -15.8911 0 
675 1 14.1044 -15.8719 0 
677 1 15.2293 -15.8581 0 
679 1 16.3549 -15.8405 0 
681 1 17.481 -15.8276 0 
683 1 18.6068 -15.8147 0 
685 1 19.7349 -15.7993 0 
687 1 20.8623 -15.786 0 
689 1 21.9884 -15.7735 0 
691 1 23.1157 -15.7628 0 
693 1 24.2427 -15.7569 0 
695 2 25.3699 -15.7527 0 
697 2 26.4989 -15.7471 0 
699 2 27.6281 -15.742 0 
701 2 -27.6483 -15.3934 0 
703 2 -26.5193 -15.357 0 
705 2 -25.3901 -15.3199 0 
707 2 -24.2607 -15.282 0 
709 1 -23.1303 -15.2456 0 
711 1 -22.0004 -15.2058 0 
713 1 -20.8711 -15.1627 0 
715 1 -19.7381 -15.1174 0 
717 1 -18.605 -15.0705 0 
719 1 -17.4714 -15.0227 0 
721 1 -16.3385 -14.9751 0 
723 1 -15.2063 -14.9248 0 
725 1 -14.0756 -14.8718 0 
727 1 -12.9454 -14.82 0 
729 1 -11.8146 -14.7711 0 
731 1 -10.6862 -14.7199 0 
733 1 -9.55776 -14.6698 0 
636 1 -7.84696 -15.5752 0 
735 1 -8.43047 -14.6174 0 
638 1 -6.72118 -15.5239 0 
737 1 -7.30501 -14.565 0 
640 1 -5.59554 -15.4734 0 
739 1 -6.17859 -14.5128 0 
642 1 -4.47108 -15.4217 0 
644 1 -3.34593 -15.3713 0 
646 1 -2.22243 -15.3242 0 
648 1 -1.10039 -15.2745 0 
650 1 0.0229121 -15.2286 0 
652 1 1.14698 -15.1877 0 
654 1 2.27023 -15.1519 0 
656 1 3.39513 -15.1198 0 
658 1 4.52041 -15.0903 0 
660 1 5.64518 -15.0643 0 
662 1 6.77017 -15.0364 0 
664 1 7.89495 -15.0112 0 
666 1 9.021 -14.9819 0 
668 1 10.1467 -14.957 0 
670 1 11.2709 -14.9329 0 
672 1 12.3957 -14.9129 0 
674 1 13.5213 -14.8934 0 
676 1 14.648 -14.874 0 
678 1 15.7728 -14.858 0 
680 1 16.9004 -14.8439 0 
682 1 18.0276 -14.8322 0 
684 1 19.1556 -14.8194 0 
686 1 20.2832 -14.8039 0 
688 1 21.4096 -14.7909 0 
690 1 22.5378 -14.7817 0 
692 1 23.6652 -14.7728 0 
694 1 24.7948 -14.7691 0 
696 2 25.9226 -14.7642 0 
698 2 27.0521 -14.7592 0 
700 2 28.1818 -14.7547 0 
702 2 -27.11 -14.4044 0 
801 2 -27.7009 -13.4516 0 
704 2 -25.9811 -14.3676 0 
803 2 -26.5724 -13.4152 0 
706 2 -24.852 -14.3301 0 
805 2 -25.4437 -13.3781 0 
708 1 -23.721 -14.2924 0 
807 2 -24.3146 -13.3401 0 
710 1 -22.5921 -14.254 0 
809 1 -23.185 -13.3012 0 
712 1 -21.4634 -14.212 0 
714 1 -20.333 -14.1702 0 
716 1 -19.1999 -14.1237 0 
718 1 -18.0668 -14.0757 0 
720 1 -16.9323 -14.0274 0 
722 1 -15.8006 -13.9777 0 
724 1 -14.6683 -13.9236 0 
726 1 -13.5358 -13.8692 0 
728 1 -12.4036 -13.8192 0 
730 1 -11.2745 -13.7674 0 
732 1 -10.1455 -13.7158 0 
734 1 -9.01754 -13.6622 0 
736 1 -7.89157 -13.6074 0 
738 1 -6.76558 -13.5545 0 
740 1 -5.63934 -13.5006 0 
741 1 -5.05364 -14.4599 0 
742 1 -4.51442 -13.4477 0 
743 1 -3.92825 -14.4092 0 
744 1 -3.39187 -13.3929 0 
745 1 -2.80504 -14.3581 0 
746 1 -2.2708 -13.3402 0 
747 1 -1.68321 -14.308 0 
749 1 -0.558914 -14.2606 0 
751 1 0.565954 -14.2169 0 
753 1 1.69023 -14.1788 0 
755 1 2.81512 -14.1452 0 
757 1 3.9404 -14.1134 0 
759 1 5.06513 -14.0851 0 
761 1 6.1875 -14.0583 0 
763 1 7.3118 -14.0322 0 
765 1 8.43629 -14.0081 0 
767 1 9.56419 -13.9785 0 
769 1 10.6915 -13.9535 0 
771 1 11.817 -13.933 0 
773 1 12.9412 -13.9131 0 
775 1 14.0659 -13.8942 0 
777 1 15.191 -13.8748 0 
779 1 16.3182 -13.8611 0 
781 1 17.4462 -13.8485 0 
783 1 18.5741 -13.8367 0 
785 1 19.7022 -13.8235 0 
787 1 20.8307 -13.8082 0 
789 1 21.9594 -13.7982 0 
791 1 23.0879 -13.7898 0 
793 1 24.2177 -13.7853 0 
795 2 25.3462 -13.7811 0 
797 2 26.4761 -13.7764 0 
799 2 27.6062 -13.772 0 
802 2 -27.164 -12.4626 0 
804 2 -26.0357 -12.4259 0 
806 2 -24.9071 -12.3884 0 
808 1 -23.7775 -12.3492 0 
810 1 -22.6492 -12.3117 0 
811 1 -22.0558 -13.2619 0 
812 1 -21.5198 -12.2696 0 
813 1 -20.9247 -13.2189 0 
814 1 -20.3885 -12.2258 0 
815 1 -19.7934 -13.1758 0 
816 1 -19.2575 -12.1803 0 
817 1 -18.6628 -13.1285 0 
818 1 -18.1247 -12.1349 0 
819 1 -17.5292 -13.0815 0 
821 1 -16.3965 -13.0303 0 
823 1 -15.265 -12.9784 0 
825 1 -14.1314 -12.9228 0 
827 1 -12.9977 -12.8704 0 
829 1 -11.8658 -12.8163 0 
831 1 -10.7359 -12.7628 0 
833 1 -9.60727 -12.709 0 
835 1 -8.48032 -12.652 0 
837 1 -7.35352 -12.5982 0 
839 1 -6.22764 -12.5425 0 
841 1 -5.10165 -12.487 0 
843 1 -3.97652 -12.4302 0 
845 1 -2.85442 -12.3728 0 
748 1 -1.14767 -13.2916 0 
847 1 -1.73264 -12.3222 0 
849 1 -0.610726 -12.2732 0 
750 1 -0.0241753 -13.2444 0 
851 1 0.512658 -12.2316 0 
752 1 1.10039 -13.2042 0 
853 1 1.6368 -12.1936 0 
754 1 2.22489 -13.1686 0 
756 1 3.34997 -13.1368 0 
758 1 4.47672 -13.1073 0 
760 1 5.60175 -13.0789 0 
762 1 6.72679 -13.0538 0 
764 1 7.85071 -13.0276 0 
766 1 8.97584 -13.0032 0 
768 1 10.1044 -12.9749 0 
770 1 11.2326 -12.9527 0 
772 1 12.3595 -12.931 0 
774 1 13.4858 -12.9122 0 
776 1 14.6104 -12.8934 0 
778 1 15.7359 -12.8782 0 
780 1 16.8627 -12.8656 0 
782 1 17.9904 -12.8535 0 
784 1 19.1194 -12.8409 0 
786 1 20.2496 -12.8294 0 
788 1 21.3804 -12.8161 0 
790 1 22.5111 -12.8066 0 
792 1 23.6401 -12.8009 0 
794 1 24.7696 -12.7967 0 
796 2 25.9 -12.7934 0 
798 2 27.0306 -12.7893 0 
800 2 28.1612 -12.7854 0 
901 2 -27.7557 -11.5099 0 
903 2 -26.6279 -11.4735 0 
905 2 -25.4997 -11.4364 0 
907 2 -24.3713 -11.3985 0 
909 1 -23.242 -11.3601 0 
911 1 -22.1147 -11.3209 0 
913 1 -20.9845 -11.2775 0 
915 1 -19.8528 -11.2336 0 
917 1 -18.7193 -11.1878 0 
820 1 -16.9918 -12.0848 0 
919 1 -17.5872 -11.1396 0 
822 1 -15.86 -12.0323 0 
921 1 -16.4569 -11.0864 0 
824 1 -14.7276 -11.9788 0 
923 1 -15.3259 -11.0341 0 
826 1 -13.595 -11.9237 0 
828 1 -12.4626 -11.8703 0 
830 1 -11.3296 -11.8137 0 
832 1 -10.1993 -11.7582 0 
834 1 -9.07112 -11.7008 0 
836 1 -7.94256 -11.6426 0 
838 1 -6.81637 -11.585 0 
840 1 -5.68984 -11.5275 0 
842 1 -4.56631 -11.4695 0 
844 1 -3.44311 -11.4094 0 
846 1 -2.31917 -11.3551 0 
848 1 -1.1961 -11.3042 0 
850 1 -0.0733735 -11.2593 0 
852 1 1.05066 -11.2214 0 
855 1 2.76177 -12.1594 0 
854 1 2.17636 -11.1844 0 
857 1 3.88744 -12.1304 0 
856 1 3.30271 -11.1515 0 
859 1 5.01431 -12.1001 0 
858 1 4.42836 -11.1217 0 
861 1 6.14045 -12.0743 0 
860 1 5.55469 -11.0938 0 
863 1 7.26665 -12.0476 0 
862 1 6.68172 -11.068 0 
865 1 8.3924 -12.0233 0 
864 1 7.80834 -11.042 0 
867 1 9.51872 -11.9969 0 
869 1 10.6472 -11.9724 0 
871 1 11.7742 -11.9504 0 
873 1 12.9017 -11.9292 0 
875 1 14.0288 -11.9115 0 
877 1 15.1569 -11.8953 0 
879 1 16.2853 -11.8828 0 
881 1 17.4129 -11.8707 0 
883 1 18.5416 -11.8599 0 
885 1 19.6723 -11.8487 0 
887 1 20.8029 -11.837 0 
889 1 21.9333 -11.8251 0 
891 1 23.0638 -11.8176 0 
893 1 24.1935 -11.8129 0 
895 2 25.3239 -11.8103 0 
897 2 26.4549 -11.8064 0 
899 2 27.586 -11.8028 0 
902 2 -27.2202 -10.5209 0 
904 2 -26.0925 -10.4842 0 
906 2 -24.9646 -10.4468 0 
908 1 -23.8362 -10.4094 0 
910 1 -22.7076 -10.3696 0 
912 1 -21.5792 -10.3298 0 
914 1 -20.4479 -10.2866 0 
916 1 -19.3172 -10.2426 0 
918 1 -18.1863 -10.1943 0 
920 1 -17.0565 -10.1413 0 
922 1 -15.9243 -10.0884 0 
924 1 -14.7907 -10.0368 0 
925 1 -14.1925 -10.9794 0 
926 1 -13.656 -9.98043 0 
927 1 -13.0589 -10.9248 0 
928 1 -12.5229 -9.92484 0 
929 1 -11.9261 -10.8695 0 
930 1 -11.3907 -9.86547 0 
931 1 -10.7937 -10.8108 0 
933 1 -9.66379 -10.7517 0 
935 1 -8.53309 -10.691 0 
937 1 -7.40373 -10.629 0 
939 1 -6.27837 -10.5692 0 
941 1 -5.15463 -10.5091 0 
943 1 -4.03139 -10.4491 0 
945 1 -2.90859 -10.3909 0 
947 1 -1.78706 -10.3358 0 
949 1 -0.663683 -10.2864 0 
951 1 0.462552 -10.245 0 
953 1 1.58758 -10.2068 0 
955 1 2.71441 -10.1727 0 
957 1 3.84153 -10.1421 0 
959 1 4.96837 -10.113 0 
961 1 6.09522 -10.0875 0 
963 1 7.22269 -10.0612 0 
965 1 8.35077 -10.0383 0 
866 1 8.93583 -11.0184 0 
967 1 9.47956 -10.0153 0 
868 1 10.0641 -10.9942 0 
969 1 10.6088 -9.99242 0 
870 1 11.1929 -10.9698 0 
971 1 11.7389 -9.96818 0 
872 1 12.3217 -10.9476 0 
973 1 12.8707 -9.94774 0 
874 1 13.4508 -10.9294 0 
975 1 14.0001 -9.93073 0 
876 1 14.5789 -10.9132 0 
977 1 15.1305 -9.91829 0 
878 1 15.7088 -10.9011 0 
979 1 16.2594 -9.90707 0 
880 1 16.837 -10.8883 0 
981 1 17.3883 -9.89597 0 
882 1 17.9657 -10.8777 0 
983 1 18.5181 -9.88507 0 
884 1 19.0938 -10.8681 0 
985 1 19.6465 -9.87675 0 
886 1 20.2243 -10.8577 0 
987 1 20.7771 -9.8666 0 
888 1 21.3559 -10.8453 0 
890 1 22.4874 -10.8353 0 
989 1 21.9084 -9.85535 0 
892 1 23.6178 -10.8295 0 
991 1 23.0409 -9.8478 0 
894 1 24.7484 -10.8267 0 
993 1 24.1735 -9.84327 0 
896 2 25.8793 -10.8234 0 
995 2 25.3037 -9.84035 0 
898 2 27.0108 -10.8201 0 
997 2 26.4357 -9.83726 0 
900 2 28.1423 -10.817 0 
999 2 27.5677 -9.8344 0 
1001 2 -27.8125 -9.56805 0 
1003 2 -26.6854 -9.5318 0 
1005 2 -25.5581 -9.49477 0 
1007 2 -24.4305 -9.45693 0 
1009 1 -23.3032 -9.41857 0 
1011 1 -22.1746 -9.37872 0 
1013 1 -21.044 -9.33929 0 
1015 1 -19.9139 -9.29455 0 
1017 1 -18.7863 -9.24865 0 
1019 1 -17.6568 -9.19722 0 
1021 1 -16.5241 -9.1441 0 
1023 1 -15.3901 -9.09315 0 
1025 1 -14.2568 -9.03969 0 
1027 1 -13.1219 -8.9809 0 
1029 1 -11.9882 -8.92155 0 
932 1 -10.2583 -9.80363 0 
1031 1 -10.854 -8.85844 0 
934 1 -9.12712 -9.74291 0 
1033 1 -9.72353 -8.79601 0 
936 1 -7.99703 -9.67806 0 
1035 1 -8.59519 -8.73123 0 
938 1 -6.86929 -9.61417 0 
940 1 -5.74263 -9.55248 0 
942 1 -4.61842 -9.48882 0 
944 1 -3.49612 -9.42604 0 
946 1 -2.37498 -9.36543 0 
948 1 -1.2504 -9.3129 0 
950 1 -0.12458 -9.2681 0 
952 1 1.00001 -9.22699 0 
954 1 2.12619 -9.19308 0 
956 1 3.25362 -9.16218 0 
958 1 4.38196 -9.13205 0 
960 1 5.51139 -9.10639 0 
962 1 6.64123 -9.08201 0 
964 1 7.77092 -9.05745 0 
966 1 8.89914 -9.03391 0 
968 1 10.0274 -9.01087 0 
970 1 11.1553 -8.98979 0 
972 1 12.2846 -8.96861 0 
974 1 13.415 -8.94986 0 
976 1 14.5463 -8.93604 0 
978 1 15.6795 -8.92319 0 
980 1 16.8102 -8.91425 0 
982 1 17.9408 -8.90329 0 
984 1 19.0719 -8.89329 0 
986 1 20.2006 -8.88561 0 
988 1 21.3315 -8.8759 0 
990 1 22.4633 -8.86875 0 
992 1 23.5956 -8.86305 0 
994 1 24.7288 -8.85767 0 
996 2 25.8608 -8.85435 0 
998 2 26.9933 -8.85174 0 
1000 2 28.1257 -8.84931 0 
1002 2 -27.2783 -8.57905 0 
1101 2 -27.8711 -7.62598 0 
1004 2 -26.1516 -8.54247 0 
1103 2 -26.7449 -7.58983 0 
1006 2 -25.0246 -8.50509 0 
1105 2 -25.6186 -7.5529 0 
1008 1 -23.8987 -8.46704 0 
1107 2 -24.492 -7.51516 0 
1010 1 -22.7707 -8.42744 0 
1012 1 -21.6404 -8.3889 0 
1014 1 -20.5105 -8.34675 0 
1016 1 -19.3828 -8.30011 0 
1018 1 -18.2556 -8.25157 0 
1020 1 -17.1252 -8.20024 0 
1022 1 -15.9924 -8.14975 0 
1024 1 -14.8587 -8.09812 0 
1026 1 -13.7233 -8.04143 0 
1028 1 -12.5876 -7.97913 0 
1030 1 -11.4543 -7.91655 0 
1032 1 -10.3218 -7.85138 0 
1034 1 -9.19288 -7.78578 0 
1036 1 -8.0622 -7.71802 0 
1037 1 -7.46656 -8.6649 0 
1038 1 -6.93273 -7.64905 0 
1039 1 -6.33726 -8.59916 0 
1041 1 -5.21102 -8.5316 0 
1043 1 -4.08734 -8.46275 0 
1045 1 -2.96618 -8.3972 0 
1047 1 -1.84076 -8.34199 0 
1049 1 -0.715894 -8.29353 0 
1051 1 0.408673 -8.25048 0 
1053 1 1.53526 -8.21563 0 
1055 1 2.66434 -8.1841 0 
1057 1 3.79442 -8.15543 0 
1059 1 4.92697 -8.12665 0 
1061 1 6.05816 -8.10093 0 
1063 1 7.18877 -8.07717 0 
1065 1 8.31778 -8.05203 0 
1067 1 9.44766 -8.02997 0 
1069 1 10.5774 -8.0074 0 
1071 1 11.707 -7.99001 0 
1073 1 12.8369 -7.96991 0 
1075 1 13.9676 -7.95488 0 
1077 1 15.0994 -7.94107 0 
1079 1 16.2335 -7.93068 0 
1081 1 17.3647 -7.92183 0 
1083 1 18.498 -7.91157 0 
1085 1 19.6296 -7.90227 0 
1087 1 20.7606 -7.89573 0 
1089 1 21.8917 -7.88776 0 
1091 1 23.0224 -7.88295 0 
1093 1 24.1541 -7.87704 0 
1095 2 25.2861 -7.87134 0 
1097 2 26.419 -7.86899 0 
1099 2 27.5519 -7.8668 0 
1102 2 -27.3381 -6.63684 0 
1104 2 -26.2124 -6.60035 0 
1106 2 -25.0865 -6.56307 0 
1108 1 -23.9614 -6.52573 0 
1109 1 -23.3652 -7.47688 0 
1110 1 -22.8355 -6.48709 0 
1111 1 -22.2373 -7.43753 0 
1112 1 -21.7083 -6.44871 0 
1113 1 -21.1092 -7.39844 0 
1114 1 -20.5818 -6.40631 0 
1115 1 -19.9825 -7.35258 0 
1116 1 -19.4554 -6.35762 0 
1117 1 -18.8563 -7.30468 0 
1119 1 -17.7267 -7.25497 0 
1121 1 -16.5943 -7.20512 0 
1123 1 -15.4611 -7.15591 0 
1125 1 -14.3265 -7.10154 0 
1127 1 -13.1915 -7.03986 0 
1129 1 -12.0573 -6.97608 0 
1131 1 -10.9234 -6.91127 0 
1133 1 -9.79132 -6.84193 0 
1135 1 -8.65958 -6.77468 0 
1137 1 -7.52777 -6.7014 0 
1139 1 -6.39859 -6.62476 0 
1040 1 -5.80532 -7.57712 0 
1141 1 -5.27247 -6.54601 0 
1042 1 -4.67959 -7.50256 0 
1143 1 -4.14831 -6.47318 0 
1044 1 -3.55579 -7.43274 0 
1046 1 -2.43095 -7.37616 0 
1048 1 -1.30776 -7.32117 0 
1050 1 -0.18135 -7.27409 0 
1052 1 0.948314 -7.23827 0 
1054 1 2.07746 -7.20609 0 
1056 1 3.2077 -7.17795 0 
1058 1 4.34035 -7.15068 0 
1060 1 5.47344 -7.12128 0 
1062 1 6.6048 -7.09739 0 
1064 1 7.73428 -7.07124 0 
1066 1 8.86531 -7.05002 0 
1068 1 9.9955 -7.02725 0 
1070 1 11.1271 -7.00865 0 
1072 1 12.2581 -6.99151 0 
1074 1 13.3926 -6.97401 0 
1076 1 14.5253 -6.95992 0 
1078 1 15.6589 -6.94758 0 
1080 1 16.7918 -6.93887 0 
1082 1 17.9235 -6.93114 0 
1084 1 19.0565 -6.91941 0 
1086 1 20.1884 -6.91232 0 
1088 1 21.3186 -6.90507 0 
1090 1 22.4496 -6.90001 0 
1092 1 23.58 -6.89497 0 
1094 1 24.7113 -6.88878 0 
1096 2 25.8451 -6.88616 0 
1098 2 26.9784 -6.88422 0 
1100 2 28.1116 -6.88241 0 
1201 2 -27.9311 -5.68349 0 
1203 2 -26.806 -5.64742 0 