ITEM: TIMESTEP
5000
ITEM: NUMBER OF ATOMS
2850
ITEM: BOX BOUNDS ff ff pp
-42.092 42.092
-42.092 42.092
-0.280613 0.280613
ITEM: ATOMS id type xu yu zu 
1 2 -27.3398 -28.9988 0 
3 2 -26.2107 -28.9642 0 
5 2 -25.0816 -28.9291 0 
7 2 -23.9525 -28.8936 0 
9 2 -22.8235 -28.8577 0 
11 2 -21.6944 -28.8213 0 
13 2 -20.5655 -28.7844 0 
15 2 -19.4366 -28.7472 0 
17 2 -18.3079 -28.7095 0 
19 2 -17.1793 -28.6715 0 
21 2 -16.0508 -28.6331 0 
23 2 -14.9226 -28.5944 0 
25 2 -13.7947 -28.5554 0 
27 2 -12.667 -28.5163 0 
29 2 -11.5396 -28.477 0 
31 2 -10.4126 -28.4376 0 
33 2 -9.28592 -28.3982 0 
35 2 -8.15967 -28.3589 0 
37 2 -7.03386 -28.3198 0 
39 2 -5.90848 -28.281 0 
2 2 -26.7941 -28.0086 0 
4 2 -25.6649 -27.9736 0 
6 2 -24.5357 -27.9381 0 
8 2 -23.4065 -27.902 0 
10 2 -22.2773 -27.8656 0 
12 2 -21.1481 -27.8286 0 
14 2 -20.019 -27.7912 0 
16 2 -18.89 -27.7533 0 
18 2 -17.7611 -27.715 0 
20 2 -16.6324 -27.6763 0 
22 2 -15.5039 -27.6373 0 
24 2 -14.3755 -27.5979 0 
26 2 -13.2475 -27.5582 0 
28 2 -12.1197 -27.5183 0 
30 2 -10.9923 -27.4783 0 
32 2 -9.86522 -27.4382 0 
34 2 -8.73856 -27.3981 0 
36 2 -7.61233 -27.3581 0 
38 2 -6.48656 -27.3184 0 
40 2 -5.36126 -27.2789 0 
41 2 -4.78357 -28.2426 0 
42 2 -4.23645 -27.24 0 
43 2 -3.65912 -28.2046 0 
44 2 -3.11213 -27.2015 0 
45 2 -2.53513 -28.1673 0 
46 2 -1.98828 -27.1638 0 
47 2 -1.41159 -28.1307 0 
48 2 -0.8649 -27.1269 0 
49 2 -0.288464 -28.095 0 
51 2 0.834263 -28.0602 0 
53 2 1.95663 -28.0264 0 
55 2 3.07869 -27.9937 0 
57 2 4.20048 -27.9622 0 
59 2 5.32207 -27.9319 0 
61 2 6.4435 -27.9029 0 
63 2 7.56483 -27.8752 0 
65 2 8.68613 -27.8488 0 
67 2 9.80743 -27.8237 0 
69 2 10.9288 -27.8 0 
71 2 12.0503 -27.7775 0 
73 2 13.1719 -27.7563 0 
75 2 14.2937 -27.7363 0 
77 2 15.4157 -27.7174 0 
79 2 16.538 -27.6997 0 
81 2 17.6605 -27.683 0 
83 2 18.7832 -27.6673 0 
85 2 19.9063 -27.6526 0 
87 2 21.0296 -27.6388 0 
89 2 22.1532 -27.6258 0 
91 2 23.2771 -27.6136 0 
93 2 24.4012 -27.6022 0 
95 2 25.5256 -27.5914 0 
97 2 26.6503 -27.5812 0 
99 2 27.7752 -27.5717 0 
101 2 -27.378 -27.0533 0 
103 2 -26.2487 -27.0183 0 
102 2 -26.833 -26.0633 0 
105 2 -25.1194 -26.9828 0 
104 2 -25.7037 -26.0278 0 
107 2 -23.9901 -26.9468 0 
106 2 -24.5742 -25.9918 0 
109 2 -22.8607 -26.9102 0 
108 1 -23.4444 -25.9549 0 
111 2 -21.7314 -26.8732 0 
113 2 -20.6021 -26.8357 0 
115 2 -19.4729 -26.7977 0 
117 2 -18.3437 -26.7591 0 
119 2 -17.2147 -26.7202 0 
121 2 -16.0858 -26.6808 0 
123 2 -14.9572 -26.641 0 
125 2 -13.8287 -26.6009 0 
127 2 -12.7006 -26.5605 0 
129 2 -11.5727 -26.5198 0 
131 2 -10.4452 -26.479 0 
133 2 -9.31813 -26.4382 0 
135 2 -8.19146 -26.3973 0 
137 2 -7.06526 -26.3566 0 
139 2 -5.93954 -26.3162 0 
141 2 -4.81433 -26.2762 0 
143 2 -3.68963 -26.2366 0 
145 2 -2.56545 -26.1977 0 
147 2 -1.44177 -26.1596 0 
50 2 0.258046 -27.0909 0 
149 2 -0.318563 -26.1224 0 
52 2 1.38059 -27.056 0 
151 2 0.804196 -26.0862 0 
54 2 2.50279 -27.0222 0 
153 2 1.92656 -26.0512 0 
56 2 3.62468 -26.9896 0 
155 2 3.04857 -26.0174 0 
58 2 4.74633 -26.9582 0 
157 2 4.1703 -25.9849 0 
60 2 5.86779 -26.9282 0 
159 2 5.2918 -25.9538 0 
62 2 6.98913 -26.8996 0 
64 2 8.11041 -26.8723 0 
66 2 9.23169 -26.8465 0 
68 2 10.353 -26.822 0 
70 2 11.4745 -26.7989 0 
72 2 12.596 -26.7771 0 
74 2 13.7178 -26.7566 0 
76 2 14.8398 -26.7373 0 
78 2 15.962 -26.7192 0 
80 2 17.0845 -26.7023 0 
82 2 18.2073 -26.6863 0 
84 2 19.3304 -26.6714 0 
86 2 20.4538 -26.6575 0 
88 2 21.5774 -26.6444 0 
90 2 22.7014 -26.6321 0 
92 2 23.8256 -26.6206 0 
94 2 24.9501 -26.6098 0 
96 2 26.0749 -26.5996 0 
98 2 27.2 -26.5901 0 
100 2 28.3253 -26.5811 0 
201 2 -27.4179 -25.1085 0 
203 2 -26.2885 -25.0731 0 
205 2 -25.159 -25.0372 0 
207 2 -24.0295 -25.0007 0 
209 1 -22.8992 -24.9627 0 
110 1 -22.3147 -25.9175 0 
211 1 -21.7691 -24.9245 0 
112 1 -21.1851 -25.8797 0 
213 1 -20.6393 -24.8857 0 
114 1 -20.0557 -25.8414 0 
215 1 -19.5097 -24.8465 0 
116 1 -18.9263 -25.8025 0 
217 1 -18.3804 -24.8068 0 
118 1 -17.7972 -25.7632 0 
120 1 -16.6682 -25.7235 0 
122 1 -15.5394 -25.6833 0 
124 1 -14.4109 -25.6427 0 
126 1 -13.2826 -25.6018 0 
128 1 -12.1547 -25.5605 0 
130 1 -11.0271 -25.5191 0 
132 1 -9.89997 -25.4776 0 
134 1 -8.7732 -25.436 0 
136 1 -7.6469 -25.3945 0 
138 1 -6.52114 -25.3532 0 
140 1 -5.39591 -25.3122 0 
142 1 -4.27113 -25.2717 0 
144 1 -3.1468 -25.2318 0 
146 1 -2.02298 -25.1926 0 
148 1 -0.899697 -25.1544 0 
150 1 0.223235 -25.1172 0 
152 1 1.3459 -25.0812 0 
154 1 2.46825 -25.0463 0 
156 1 3.59031 -25.0129 0 
158 1 4.71215 -24.9808 0 
160 1 5.83383 -24.9503 0 
161 2 6.41316 -25.9242 0 
162 1 6.95555 -24.9214 0 
163 2 7.53443 -25.896 0 
164 1 8.07721 -24.8939 0 
165 2 8.65568 -25.8693 0 
167 2 9.77697 -25.844 0 
166 1 9.1989 -24.8679 0 
169 2 10.8984 -25.8202 0 
168 1 10.3207 -24.8434 0 
171 2 12.0199 -25.7978 0 
170 1 11.4425 -24.8204 0 
173 2 13.1416 -25.7768 0 
175 2 14.2636 -25.7571 0 
177 2 15.3858 -25.7386 0 
179 2 16.5083 -25.7213 0 
181 2 17.6311 -25.7052 0 
183 2 18.7543 -25.6901 0 
185 2 19.8777 -25.6759 0 
187 2 21.0014 -25.6627 0 
189 2 22.1254 -25.6504 0 
191 2 23.2498 -25.6388 0 
193 2 24.3744 -25.628 0 
195 2 25.4993 -25.6179 0 
197 2 26.6245 -25.6084 0 
199 2 27.75 -25.5994 0 
202 2 -26.8739 -24.1187 0 
204 2 -25.7444 -24.0828 0 
206 2 -24.6148 -24.0464 0 
208 1 -23.4845 -24.0088 0 
210 1 -22.3542 -23.97 0 
212 1 -21.2241 -23.9309 0 
214 1 -20.0942 -23.8913 0 
216 1 -18.9645 -23.8513 0 
219 1 -17.2512 -24.7667 0 
218 1 -17.835 -23.8107 0 
221 1 -16.1222 -24.7262 0 
220 1 -16.7057 -23.7698 0 
222 1 -15.5768 -23.7282 0 
223 1 -14.9935 -24.6851 0 
224 1 -14.4481 -23.6863 0 
225 1 -13.8651 -24.6437 0 
227 1 -12.737 -24.6019 0 
229 1 -11.6092 -24.5598 0 
231 1 -10.4818 -24.5175 0 
233 1 -9.35497 -24.4752 0 
235 1 -8.22853 -24.4329 0 
237 1 -7.10263 -24.3907 0 
239 1 -5.97725 -24.3488 0 
241 1 -4.85241 -24.3073 0 
243 1 -3.72804 -24.2664 0 
245 1 -2.60407 -24.2262 0 
247 1 -1.48047 -24.1868 0 
249 1 -0.3574 -24.1486 0 
251 1 0.765306 -24.1115 0 
253 1 1.88783 -24.0756 0 
255 1 3.01016 -24.0412 0 
257 1 4.13228 -24.0082 0 
259 1 5.25431 -23.9767 0 
261 1 6.37628 -23.947 0 
263 1 7.49819 -23.9187 0 
265 1 8.62023 -23.892 0 
267 1 9.74237 -23.8668 0 
269 1 10.8646 -23.8431 0 
271 1 11.987 -23.8209 0 
172 1 12.5646 -24.7988 0 
273 1 13.1095 -23.8001 0 
174 1 13.6868 -24.7786 0 
275 1 14.2324 -23.7807 0 
176 1 14.8094 -24.7596 0 
277 1 15.3555 -23.7626 0 
178 1 15.9321 -24.7419 0 
279 1 16.4787 -23.7457 0 
180 1 17.0552 -24.7254 0 
281 1 17.6022 -23.73 0 
182 1 18.1785 -24.71 0 
283 1 18.726 -23.7152 0 
184 1 19.3021 -24.6956 0 
285 1 19.85 -23.7015 0 
186 1 20.426 -24.6822 0 
287 1 20.9743 -23.6887 0 
188 1 21.5501 -24.6696 0 
289 1 22.0988 -23.6766 0 
190 1 22.6745 -24.6577 0 
291 1 23.2234 -23.6653 0 
192 1 23.7991 -24.6466 0 
293 1 24.3482 -23.6546 0 
194 1 24.9239 -24.6362 0 
295 2 25.4729 -23.6443 0 
196 2 26.0488 -24.6264 0 
198 2 27.1745 -24.6176 0 
200 2 28.3003 -24.6093 0 
301 2 -27.4598 -23.1644 0 
303 2 -26.3303 -23.1287 0 
305 2 -25.2007 -23.0924 0 
307 2 -24.071 -23.0555 0 
309 1 -22.9402 -23.0164 0 
311 1 -21.8098 -22.9769 0 
313 1 -20.6795 -22.9369 0 
315 1 -19.5494 -22.8964 0 
317 1 -18.4196 -22.8556 0 
319 1 -17.29 -22.8141 0 
321 1 -16.1608 -22.7722 0 
323 1 -15.0318 -22.7296 0 
226 1 -13.3198 -23.644 0 
325 1 -13.9032 -22.6868 0 
327 1 -12.775 -22.6434 0 
228 1 -12.1919 -23.6012 0 
329 1 -11.6472 -22.5998 0 
230 1 -11.0643 -23.5583 0 
331 1 -10.5198 -22.556 0 
232 1 -9.93716 -23.5152 0 
333 1 -9.39292 -22.512 0 
234 1 -8.81055 -23.4721 0 
236 1 -7.68439 -23.4289 0 
238 1 -6.5588 -23.3861 0 
240 1 -5.43374 -23.3435 0 
242 1 -4.30919 -23.3015 0 
244 1 -3.18507 -23.2603 0 
246 1 -2.06141 -23.2199 0 
248 1 -0.938095 -23.1803 0 
250 1 0.184815 -23.1421 0 
252 1 1.30741 -23.1053 0 
254 1 2.42985 -23.0698 0 
256 1 3.55217 -23.0358 0 
258 1 4.67441 -23.0034 0 
260 1 5.79661 -22.9727 0 
262 1 6.91881 -22.9437 0 
264 1 8.04112 -22.9163 0 
266 1 9.1636 -22.8904 0 
268 1 10.2862 -22.866 0 
270 1 11.4089 -22.8432 0 
272 1 12.5317 -22.8217 0 
274 1 13.6548 -22.8018 0 
276 1 14.7782 -22.7833 0 
278 1 15.9017 -22.7659 0 
280 1 17.0255 -22.7499 0 
282 1 18.1494 -22.7349 0 
284 1 19.2737 -22.7209 0 
286 1 20.3981 -22.7078 0 
288 1 21.5227 -22.6955 0 
290 1 22.6475 -22.6839 0 
292 1 23.7723 -22.6731 0 
294 1 24.8974 -22.6626 0 
297 2 26.5987 -23.6355 0 
296 2 26.0228 -22.6533 0 
299 2 27.7248 -23.6273 0 
298 2 27.149 -22.6452 0 
300 2 28.2755 -22.6376 0 
302 2 -26.9167 -22.1747 0 
304 2 -25.7871 -22.1385 0 
306 2 -24.6574 -22.1018 0 
308 1 -23.5268 -22.0634 0 
310 1 -22.3962 -22.0235 0 
312 1 -21.2657 -21.9832 0 
314 1 -20.1353 -21.9424 0 
316 1 -19.0051 -21.9011 0 
318 1 -17.8753 -21.8593 0 
320 1 -16.7456 -21.8169 0 
322 1 -15.6164 -21.7738 0 
324 1 -14.4874 -21.7305 0 
326 1 -13.3589 -21.6866 0 
328 1 -12.2307 -21.6422 0 
330 1 -11.1029 -21.5977 0 
332 1 -9.9757 -21.5528 0 
334 1 -8.84893 -21.508 0 
335 1 -8.26648 -22.4681 0 
336 1 -7.72276 -21.4631 0 
337 1 -7.14053 -22.4241 0 
338 1 -6.59713 -21.4184 0 
339 1 -6.01521 -22.3806 0 
340 1 -5.47209 -21.3741 0 
341 1 -4.89045 -22.3374 0 
343 1 -3.76617 -22.295 0 
345 1 -2.64235 -22.2534 0 
347 1 -1.51899 -22.2128 0 
349 1 -0.395939 -22.1733 0 
351 1 0.726849 -22.1352 0 
353 1 1.84944 -22.0987 0 
355 1 2.97193 -22.0637 0 
357 1 4.09433 -22.0304 0 
359 1 5.21676 -21.9987 0 
361 1 6.33921 -21.9688 0 
363 1 7.46177 -21.9406 0 
365 1 8.58444 -21.914 0 
367 1 9.70727 -21.889 0 
369 1 10.8302 -21.8655 0 
371 1 11.9533 -21.8435 0 
373 1 13.0767 -21.823 0 
375 1 14.2003 -21.804 0 
377 1 15.3241 -21.7863 0 
379 1 16.4481 -21.7698 0 
381 1 17.5723 -21.7545 0 
383 1 18.6967 -21.7402 0 
385 1 19.8213 -21.7268 0 
387 1 20.9461 -21.7143 0 
389 1 22.0711 -21.7026 0 
391 1 23.1962 -21.6915 0 
393 1 24.3213 -21.681 0 
395 2 25.4466 -21.6709 0 
397 2 26.573 -21.6629 0 
399 2 27.6998 -21.6554 0 
401 2 -27.5037 -21.2208 0 
403 2 -26.3741 -21.1849 0 
402 2 -26.9617 -20.2313 0 
405 2 -25.2445 -21.1483 0 
404 2 -25.8321 -20.1949 0 
407 2 -24.1147 -21.111 0 
409 1 -22.9836 -21.0708 0 
411 1 -21.8528 -21.0303 0 
413 1 -20.7221 -20.9891 0 
415 1 -19.5916 -20.9474 0 
417 1 -18.4614 -20.9052 0 
419 1 -17.3314 -20.8625 0 
421 1 -16.2017 -20.8189 0 
423 1 -15.0724 -20.775 0 
425 1 -13.9435 -20.7306 0 
427 1 -12.8149 -20.6856 0 
429 1 -11.6867 -20.6402 0 
431 1 -10.559 -20.5946 0 
433 1 -9.43193 -20.5488 0 
435 1 -8.30534 -20.5029 0 
437 1 -7.17939 -20.4572 0 
439 1 -6.05402 -20.4116 0 
342 1 -4.34749 -21.3304 0 
441 1 -4.92921 -20.3667 0 
344 1 -3.22342 -21.2875 0 
443 1 -3.80493 -20.3224 0 
346 1 -2.09987 -21.2457 0 
445 1 -2.6811 -20.2792 0 
348 1 -0.97672 -21.205 0 
447 1 -1.55776 -20.2372 0 
350 1 0.146222 -21.1657 0 
352 1 1.26896 -21.128 0 
354 1 2.39152 -21.0919 0 
356 1 3.51407 -21.0575 0 
358 1 4.63663 -21.0249 0 
360 1 5.75926 -20.9941 0 
362 1 6.88193 -20.9651 0 
364 1 8.0048 -20.9377 0 
366 1 9.12787 -20.912 0 
368 1 10.2511 -20.8879 0 
370 1 11.3745 -20.8653 0 
372 1 12.4981 -20.8443 0 
374 1 13.622 -20.8247 0 
376 1 14.7461 -20.8066 0 
378 1 15.8703 -20.7898 0 
380 1 16.9947 -20.774 0 
382 1 18.1193 -20.7595 0 
384 1 19.2442 -20.7459 0 
386 1 20.3692 -20.7332 0 
388 1 21.4944 -20.7213 0 
390 1 22.6197 -20.71 0 
392 1 23.7453 -20.6993 0 
394 1 24.8709 -20.6892 0 
396 2 25.9969 -20.6804 0 
398 2 27.1238 -20.673 0 
400 2 28.251 -20.6661 0 
501 2 -27.5497 -19.2779 0 
503 2 -26.4202 -19.2417 0 
505 2 -25.2906 -19.2049 0 
406 2 -24.7023 -20.1579 0 
507 2 -24.1608 -19.1673 0 
408 1 -23.5716 -20.1188 0 
509 1 -23.0296 -19.1262 0 
410 1 -22.4407 -20.078 0 
511 1 -21.8984 -19.0847 0 
412 1 -21.3098 -20.0366 0 
513 1 -20.7674 -19.0425 0 
414 1 -20.1791 -19.9946 0 
416 1 -19.0485 -19.9519 0 
418 1 -17.9181 -19.9089 0 
420 1 -16.7881 -19.865 0 
422 1 -15.6583 -19.8205 0 
424 1 -14.5289 -19.7756 0 
426 1 -13.3999 -19.73 0 
428 1 -12.2713 -19.6839 0 
430 1 -11.1432 -19.6374 0 
432 1 -10.0156 -19.5906 0 
434 1 -8.88861 -19.5437 0 
436 1 -7.76224 -19.4969 0 
438 1 -6.63646 -19.4502 0 
440 1 -5.51131 -19.4038 0 
442 1 -4.38681 -19.3582 0 
444 1 -3.26274 -19.3135 0 
446 1 -2.13912 -19.27 0 
448 1 -1.01582 -19.228 0 
449 1 -0.434677 -20.1966 0 
450 1 0.107191 -19.1877 0 
451 1 0.688195 -20.1576 0 
452 1 1.22999 -19.1491 0 
453 1 1.81093 -20.1203 0 
454 1 2.35276 -19.1124 0 
455 1 2.93359 -20.0849 0 
456 1 3.47551 -19.0777 0 
457 1 4.05623 -20.0512 0 
459 1 5.17903 -20.0194 0 
461 1 6.30197 -19.9896 0 
463 1 7.42492 -19.9614 0 
465 1 8.54817 -19.935 0 
467 1 9.6716 -19.9103 0 
469 1 10.7952 -19.8872 0 
471 1 11.9191 -19.8656 0 
473 1 13.0431 -19.8455 0 
475 1 14.1674 -19.8269 0 
477 1 15.2919 -19.8096 0 
479 1 16.4167 -19.7936 0 
481 1 17.5416 -19.7787 0 
483 1 18.6667 -19.7649 0 
485 1 19.792 -19.7519 0 
487 1 20.9175 -19.7399 0 
489 1 22.0431 -19.7286 0 
491 1 23.1689 -19.7178 0 
493 1 24.2947 -19.7075 0 
495 2 25.4205 -19.6978 0 
497 2 26.5477 -19.6905 0 
499 2 27.6751 -19.6838 0 
502 2 -27.0088 -18.2886 0 
504 2 -25.8793 -18.252 0 
506 2 -24.7497 -18.2147 0 
508 1 -23.6188 -18.175 0 
510 1 -22.4877 -18.1334 0 
512 1 -21.3565 -18.091 0 
514 1 -20.2254 -18.048 0 
515 1 -19.6365 -18.9996 0 
516 1 -19.0944 -18.0043 0 
517 1 -18.5058 -18.9561 0 
518 1 -17.9636 -17.9597 0 
519 1 -17.3754 -18.9119 0 
520 1 -16.833 -17.9145 0 
521 1 -16.2453 -18.8671 0 
523 1 -15.1154 -18.8216 0 
525 1 -13.9859 -18.7753 0 
527 1 -12.8567 -18.7285 0 
529 1 -11.7281 -18.6813 0 
531 1 -10.6001 -18.6336 0 
533 1 -9.47265 -18.5856 0 
535 1 -8.34573 -18.5376 0 
537 1 -7.21951 -18.4897 0 
539 1 -6.09397 -18.442 0 
541 1 -4.96905 -18.3948 0 
543 1 -3.84475 -18.3487 0 
545 1 -2.7209 -18.3037 0 
547 1 -1.59745 -18.2602 0 
549 1 -0.474248 -18.2183 0 
551 1 0.64872 -18.1782 0 
553 1 1.7716 -18.1402 0 
555 1 2.89451 -18.1043 0 
557 1 4.01747 -18.0706 0 
458 1 4.59842 -19.045 0 
559 1 5.1406 -18.0388 0 
460 1 5.72149 -19.0142 0 
561 1 6.26392 -18.009 0 
462 1 6.84465 -18.9852 0 
563 1 7.38746 -17.9812 0 
464 1 7.96808 -18.958 0 
565 1 8.51136 -17.955 0 
466 1 9.09174 -18.9327 0 
567 1 9.63539 -17.9307 0 
468 1 10.2156 -18.909 0 
569 1 10.7597 -17.908 0 
470 1 11.3396 -18.8868 0 
472 1 12.4639 -18.8662 0 
474 1 13.5884 -18.8471 0 
476 1 14.7132 -18.8294 0 
478 1 15.8382 -18.8131 0 
480 1 16.9635 -18.798 0 
482 1 18.0889 -18.7838 0 
484 1 19.2144 -18.7707 0 
486 1 20.3401 -18.7585 0 
488 1 21.466 -18.7469 0 
490 1 22.5921 -18.7362 0 
492 1 23.7183 -18.726 0 
494 1 24.8447 -18.716 0 
496 2 25.9714 -18.7078 0 
498 2 27.0991 -18.7012 0 
500 2 28.2271 -18.6951 0 
601 2 -27.5979 -17.3354 0 
603 2 -26.4686 -17.2992 0 
605 2 -25.3391 -17.2621 0 
607 2 -24.2094 -17.2244 0 
609 1 -23.0779 -17.1825 0 
611 1 -21.9466 -17.1401 0 
613 1 -20.8153 -17.0969 0 
615 1 -19.684 -17.0531 0 
617 1 -18.5529 -17.0084 0 
619 1 -17.4219 -16.9628 0 
522 1 -15.7027 -17.8686 0 
621 1 -16.2912 -16.9165 0 
524 1 -14.5727 -17.8218 0 
623 1 -15.1608 -16.8693 0 
526 1 -13.4432 -17.7744 0 
625 1 -14.0306 -16.8213 0 
528 1 -12.314 -17.7263 0 
627 1 -12.9009 -16.7726 0 
530 1 -11.1854 -17.6777 0 
532 1 -10.0574 -17.6288 0 
534 1 -8.92998 -17.5796 0 
536 1 -7.80328 -17.5304 0 
538 1 -6.67728 -17.4813 0 
540 1 -5.55198 -17.4327 0 
542 1 -4.42729 -17.3848 0 
544 1 -3.30312 -17.3382 0 
546 1 -2.17944 -17.293 0 
548 1 -1.05608 -17.2495 0 
550 1 0.067036 -17.2078 0 
552 1 1.19007 -17.1684 0 
554 1 2.31308 -17.1312 0 
556 1 3.43614 -17.0962 0 
558 1 4.55936 -17.0635 0 
560 1 5.68283 -17.0329 0 
562 1 6.80657 -17.0042 0 
564 1 7.93054 -16.9774 0 
566 1 9.05481 -16.9524 0 
568 1 10.1794 -16.9292 0 
571 1 11.8842 -17.8869 0 
570 1 11.3042 -16.9076 0 
573 1 13.009 -17.8674 0 
572 1 12.4293 -16.8876 0 
575 1 14.1341 -17.8493 0 
574 1 13.5546 -16.869 0 
577 1 15.2594 -17.8326 0 
576 1 14.6802 -16.852 0 
579 1 16.3849 -17.8171 0 
578 1 15.806 -16.8362 0 
581 1 17.5106 -17.8028 0 
580 1 16.932 -16.8216 0 
583 1 18.6365 -17.7894 0 
582 1 18.0582 -16.8081 0 
585 1 19.7626 -17.777 0 
584 1 19.1847 -16.7955 0 
587 1 20.8888 -17.7653 0 
586 1 20.3112 -16.7837 0 
589 1 22.0152 -17.7544 0 
588 1 21.438 -16.7727 0 
591 1 23.1417 -17.7443 0 
590 1 22.5649 -16.7624 0 
593 1 24.2682 -17.7344 0 
592 1 23.6919 -16.7527 0 
595 2 25.3948 -17.725 0 
594 1 24.8191 -16.7434 0 
596 2 25.9465 -16.7357 0 
597 2 26.5229 -17.7186 0 
598 2 27.0751 -16.7299 0 
599 2 27.6512 -17.7126 0 
600 2 28.2039 -16.7246 0 
602 2 -27.0583 -16.3463 0 
604 2 -25.929 -16.3096 0 
606 2 -24.7995 -16.2721 0 
608 1 -23.6686 -16.232 0 
610 1 -22.5375 -16.1896 0 
612 1 -21.4061 -16.1465 0 
614 1 -20.2747 -16.1026 0 
616 1 -19.1433 -16.0578 0 
618 1 -18.012 -16.0121 0 
620 1 -16.8808 -15.9654 0 
622 1 -15.7499 -15.9179 0 
624 1 -14.6193 -15.8694 0 
626 1 -13.489 -15.8201 0 
628 1 -12.3593 -15.7699 0 
629 1 -11.7718 -16.7232 0 
630 1 -11.2301 -15.719 0 
631 1 -10.6431 -16.6732 0 
632 1 -10.1014 -15.6677 0 
633 1 -9.5151 -16.6229 0 
634 1 -8.9735 -15.6159 0 
635 1 -8.38786 -16.5724 0 
637 1 -7.26132 -16.5219 0 
639 1 -6.13552 -16.4717 0 
641 1 -5.01041 -16.4222 0 
643 1 -3.88585 -16.3737 0 
645 1 -2.76189 -16.3266 0 
647 1 -1.63841 -16.2813 0 
649 1 -0.515196 -16.2381 0 
651 1 0.607943 -16.197 0 
653 1 1.73101 -16.1583 0 
655 1 2.85422 -16.122 0 
657 1 3.97759 -16.0882 0 
659 1 5.10122 -16.0566 0 
661 1 6.22513 -16.0272 0 
663 1 7.34935 -15.9997 0 
665 1 8.47381 -15.974 0 
667 1 9.59865 -15.9503 0 
669 1 10.7238 -15.9282 0 
671 1 11.8492 -15.9077 0 
673 1 12.9748 -15.8888 0 
675 1 14.1007 -15.8712 0 
677 1 15.2268 -15.8552 0 
679 1 16.3532 -15.8403 0 
681 1 17.4798 -15.8266 0 
683 1 18.6065 -15.8139 0 
685 1 19.7334 -15.802 0 
687 1 20.8606 -15.791 0 
689 1 21.9878 -15.7806 0 
691 1 23.1152 -15.7708 0 
693 1 24.2426 -15.7617 0 
695 2 25.3699 -15.7527 0 
697 2 26.4989 -15.7471 0 
699 2 27.6281 -15.742 0 
701 2 -27.6483 -15.3934 0 
703 2 -26.5193 -15.357 0 
705 2 -25.3901 -15.3199 0 
707 2 -24.2607 -15.282 0 
709 1 -23.1292 -15.2396 0 
711 1 -21.9978 -15.1965 0 
713 1 -20.8663 -15.1527 0 
715 1 -19.7347 -15.1079 0 
717 1 -18.6031 -15.0621 0 
719 1 -17.4716 -15.0153 0 
721 1 -16.3403 -14.9675 0 
723 1 -15.2092 -14.9186 0 
725 1 -14.0784 -14.8688 0 
727 1 -12.948 -14.8179 0 
729 1 -11.8182 -14.7662 0 
731 1 -10.6889 -14.7139 0 
733 1 -9.5603 -14.6609 0 
636 1 -7.8463 -15.564 0 
735 1 -8.4324 -14.6075 0 
638 1 -6.71996 -15.5121 0 
737 1 -7.30531 -14.554 0 
640 1 -5.59437 -15.4608 0 
739 1 -6.1791 -14.5009 0 
642 1 -4.46941 -15.4105 0 
644 1 -3.34512 -15.3613 0 
646 1 -2.22131 -15.314 0 
648 1 -1.09789 -15.2689 0 
650 1 0.0253098 -15.226 0 
652 1 1.14842 -15.1857 0 
654 1 2.27167 -15.1481 0 
656 1 3.3952 -15.113 0 
658 1 4.51902 -15.0805 0 
660 1 5.64317 -15.0501 0 
662 1 6.76757 -15.0219 0 
664 1 7.89231 -14.9956 0 
666 1 9.0174 -14.9713 0 
668 1 10.1428 -14.9487 0 
670 1 11.2685 -14.9278 0 
672 1 12.3946 -14.9085 0 
674 1 13.5208 -14.8906 0 
676 1 14.6474 -14.8741 0 
678 1 15.774 -14.859 0 
680 1 16.901 -14.8451 0 
682 1 18.0282 -14.8322 0 
684 1 19.1555 -14.8203 0 
686 1 20.2829 -14.8091 0 
688 1 21.4105 -14.7988 0 
690 1 22.5383 -14.789 0 
692 1 23.6662 -14.7799 0 
694 1 24.7942 -14.7712 0 
696 2 25.9226 -14.7642 0 
698 2 27.0521 -14.7592 0 
700 2 28.1818 -14.7547 0 
702 2 -27.11 -14.4044 0 
801 2 -27.7009 -13.4516 0 
704 2 -25.9811 -14.3676 0 
803 2 -26.5724 -13.4152 0 
706 2 -24.852 -14.3301 0 
805 2 -25.4437 -13.3781 0 
708 1 -23.7213 -14.2898 0 
807 2 -24.3146 -13.3401 0 
710 1 -22.5902 -14.2469 0 
809 1 -23.1834 -13.2975 0 
712 1 -21.4588 -14.2032 0 
714 1 -20.3272 -14.1586 0 
716 1 -19.1955 -14.1129 0 
718 1 -18.0637 -14.0661 0 
720 1 -16.9321 -14.0181 0 
722 1 -15.8006 -13.9689 0 
724 1 -14.6693 -13.9187 0 
726 1 -13.5382 -13.8674 0 
728 1 -12.4077 -13.8149 0 
730 1 -11.2776 -13.7616 0 
732 1 -10.1482 -13.7074 0 
734 1 -9.0197 -13.6527 0 
736 1 -7.89188 -13.5976 0 
738 1 -6.76498 -13.5425 0 
740 1 -5.63895 -13.4881 0 
741 1 -5.05367 -14.4486 0 
742 1 -4.51385 -13.4346 0 
743 1 -3.92903 -14.3973 0 
744 1 -3.38942 -13.3827 0 
745 1 -2.80493 -14.3478 0 
746 1 -2.26555 -13.333 0 
747 1 -1.68133 -14.3004 0 
749 1 -0.558026 -14.2557 0 
751 1 0.565272 -14.2136 0 
753 1 1.6887 -14.1743 0 
755 1 2.8123 -14.1379 0 
757 1 3.93622 -14.1043 0 
759 1 5.06052 -14.073 0 
761 1 6.1852 -14.0439 0 
763 1 7.31023 -14.0171 0 
765 1 8.43561 -13.9922 0 
767 1 9.56136 -13.9691 0 
769 1 10.6875 -13.9478 0 
771 1 11.8139 -13.928 0 
773 1 12.9406 -13.9098 0 
775 1 14.0675 -13.8931 0 
777 1 15.1946 -13.8775 0 
779 1 16.322 -13.8635 0 
781 1 17.4496 -13.8505 0 
783 1 18.5773 -13.8384 0 
785 1 19.7052 -13.8273 0 
787 1 20.8332 -13.8168 0 
789 1 21.9613 -13.8071 0 
791 1 23.0896 -13.7981 0 
793 1 24.2179 -13.7894 0 
795 2 25.3462 -13.7811 0 
797 2 26.4761 -13.7764 0 
799 2 27.6062 -13.772 0 
802 2 -27.164 -12.4626 0 
804 2 -26.0357 -12.4259 0 
806 2 -24.9071 -12.3884 0 
808 1 -23.7769 -12.348 0 
810 1 -22.6461 -12.3051 0 
811 1 -22.0521 -13.2541 0 
812 1 -21.5149 -12.2611 0 
813 1 -20.9206 -13.2097 0 
814 1 -20.3833 -12.216 0 
815 1 -19.7889 -13.1643 0 
816 1 -19.2516 -12.1696 0 
817 1 -18.6571 -13.1176 0 
818 1 -18.1196 -12.122 0 
819 1 -17.5252 -13.0697 0 
821 1 -16.3933 -13.0204 0 
823 1 -15.2616 -12.9699 0 
825 1 -14.13 -12.9182 0 
827 1 -12.9988 -12.8651 0 
829 1 -11.868 -12.8109 0 
831 1 -10.7378 -12.7557 0 
833 1 -9.6084 -12.6996 0 
835 1 -8.4798 -12.6431 0 
837 1 -7.35212 -12.586 0 
839 1 -6.22538 -12.5294 0 
841 1 -5.09964 -12.4735 0 
843 1 -3.97472 -12.419 0 
845 1 -2.85052 -12.3667 0 
748 1 -1.14206 -13.286 0 
847 1 -1.72681 -12.3171 0 
849 1 -0.603336 -12.2707 0 
750 1 -0.0186834 -13.2418 0 
851 1 0.52023 -12.2277 0 
752 1 1.10477 -13.2009 0 
853 1 1.64404 -12.1882 0 
754 1 2.2285 -13.163 0 
756 1 3.35261 -13.1281 0 
758 1 4.47711 -13.0959 0 
760 1 5.60204 -13.0661 0 
762 1 6.72748 -13.0385 0 
764 1 7.85327 -13.013 0 
766 1 8.9794 -12.9894 0 
768 1 10.106 -12.9676 0 
770 1 11.2328 -12.9475 0 
772 1 12.36 -12.929 0 
774 1 13.4874 -12.9119 0 
776 1 14.6149 -12.8961 0 
778 1 15.7428 -12.8817 0 
780 1 16.8708 -12.8687 0 
782 1 17.999 -12.8565 0 
784 1 19.1274 -12.8453 0 
786 1 20.2558 -12.8348 0 
788 1 21.3843 -12.8251 0 
790 1 22.513 -12.8162 0 
792 1 23.6418 -12.8077 0 
794 1 24.7707 -12.7995 0 
796 2 25.9 -12.7934 0 
798 2 27.0306 -12.7893 0 
800 2 28.1612 -12.7854 0 
901 2 -27.7557 -11.5099 0 
903 2 -26.6279 -11.4735 0 
905 2 -25.4997 -11.4364 0 
907 2 -24.3713 -11.3985 0 
909 1 -23.2406 -11.356 0 
911 1 -22.1098 -11.3126 0 
913 1 -20.9786 -11.268 0 
915 1 -19.847 -11.2221 0 
917 1 -18.7152 -11.1748 0 
820 1 -16.9875 -12.0728 0 
919 1 -17.5832 -11.126 0 
822 1 -15.8555 -12.0222 0 
921 1 -16.451 -11.0756 0 
824 1 -14.7234 -11.9703 0 
923 1 -15.3186 -11.0237 0 
826 1 -13.5916 -11.9168 0 
828 1 -12.4601 -11.862 0 
830 1 -11.3291 -11.8058 0 
832 1 -10.1987 -11.7485 0 
834 1 -9.06912 -11.6904 0 
836 1 -7.94065 -11.6316 0 
838 1 -6.81306 -11.5727 0 
840 1 -5.68661 -11.5143 0 
842 1 -4.56115 -11.457 0 
844 1 -3.43656 -11.4017 0 
846 1 -2.31265 -11.3492 0 
848 1 -1.18904 -11.3002 0 
850 1 -0.0653495 -11.255 0 
852 1 1.05865 -11.2136 0 
855 1 2.76828 -12.1519 0 
854 1 2.18312 -11.1758 0 
857 1 3.89301 -12.1187 0 
856 1 3.30814 -11.1413 0 
859 1 5.01828 -12.0881 0 
858 1 4.43364 -11.1099 0 
861 1 6.14404 -12.0598 0 
860 1 5.55976 -11.081 0 
863 1 7.2703 -12.0337 0 
862 1 6.6865 -11.0543 0 
865 1 8.39693 -12.0096 0 
864 1 7.81368 -11.0298 0 
867 1 9.52394 -11.9874 0 
869 1 10.6513 -11.9669 0 
871 1 11.7789 -11.948 0 
873 1 12.9067 -11.9307 0 
875 1 14.0348 -11.9147 0 
877 1 15.1632 -11.9001 0 
879 1 16.2918 -11.8867 0 
881 1 17.4204 -11.8744 0 
883 1 18.5492 -11.8632 0 
885 1 19.6781 -11.8527 0 
887 1 20.8071 -11.843 0 
889 1 21.9362 -11.8341 0 
891 1 23.0655 -11.8258 0 
893 1 24.1947 -11.8179 0 
895 2 25.3239 -11.8103 0 
897 2 26.4549 -11.8064 0 
899 2 27.586 -11.8028 0 
902 2 -27.2202 -10.5209 0 
904 2 -26.0925 -10.4842 0 
906 2 -24.9646 -10.4468 0 
908 1 -23.8352 -10.4067 0 
910 1 -22.705 -10.3639 0 
912 1 -21.5743 -10.3199 0 
914 1 -20.4433 -10.2747 0 
916 1 -19.3118 -10.228 0 
918 1 -18.18 -10.1796 0 
920 1 -17.0479 -10.1297 0 
922 1 -15.9155 -10.078 0 
924 1 -14.783 -10.0245 0 
925 1 -14.1863 -10.97 0 
926 1 -13.6504 -9.96905 0 
927 1 -13.0542 -10.9147 0 
928 1 -12.5178 -9.91172 0 
929 1 -11.9224 -10.8579 0 
930 1 -11.3857 -9.85261 0 
931 1 -10.7911 -10.7995 0 
933 1 -9.66046 -10.7399 0 
935 1 -8.5309 -10.6793 0 
937 1 -7.4024 -10.6183 0 
939 1 -6.27502 -10.5572 0 
941 1 -5.14886 -10.497 0 
943 1 -4.02381 -10.4385 0 
945 1 -2.89962 -10.3826 0 
947 1 -1.77585 -10.3305 0 
949 1 -0.652002 -10.2827 0 
951 1 0.472139 -10.2392 0 
953 1 1.59681 -10.1998 0 
955 1 2.72217 -10.164 0 
957 1 3.84812 -10.1315 0 
959 1 4.97466 -10.102 0 
961 1 6.10189 -10.0748 0 
963 1 7.22964 -10.0498 0 
965 1 8.35782 -10.0267 0 
866 1 8.94129 -11.0071 0 
967 1 9.48645 -10.0055 0 
868 1 10.0692 -10.9862 0 
969 1 10.6153 -9.98589 0 
870 1 11.1974 -10.967 0 
971 1 11.7444 -9.96797 0 
872 1 12.3258 -10.9493 0 
973 1 12.8737 -9.95147 0 
874 1 13.4545 -10.9331 0 
975 1 14.0033 -9.93648 0 
876 1 14.5834 -10.9183 0 
977 1 15.133 -9.92274 0 
878 1 15.7124 -10.9048 0 
979 1 16.2627 -9.91015 0 
880 1 16.8416 -10.8923 0 
981 1 17.3926 -9.89866 0 
882 1 17.971 -10.881 0 
983 1 18.5226 -9.88811 0 
884 1 19.1004 -10.8704 0 
985 1 19.6526 -9.87843 0 
886 1 20.2299 -10.8608 0 
987 1 20.7828 -9.86972 0 
888 1 21.3595 -10.852 0 
890 1 22.4892 -10.8437 0 
989 1 21.9129 -9.86156 0 
892 1 23.619 -10.836 0 
991 1 23.0432 -9.85407 0 
894 1 24.749 -10.8288 0 
993 1 24.1736 -9.84705 0 
896 2 25.8793 -10.8234 0 
995 2 25.3037 -9.84035 0 
898 2 27.0108 -10.8201 0 
997 2 26.4357 -9.83726 0 
900 2 28.1423 -10.817 0 
999 2 27.5677 -9.8344 0 
1001 2 -27.8125 -9.56805 0 
1003 2 -26.6854 -9.5318 0 
1005 2 -25.5581 -9.49477 0 
1007 2 -24.4305 -9.45693 0 
1009 1 -23.3008 -9.4149 0 
1011 1 -22.1707 -9.3717 0 
1013 1 -21.0402 -9.32725 0 
1015 1 -19.9092 -9.2813 0 
1017 1 -18.7778 -9.23365 0 
1019 1 -17.6461 -9.18424 0 
1021 1 -16.514 -9.13307 0 
1023 1 -15.3815 -9.07992 0 
1025 1 -14.2487 -9.02471 0 
1027 1 -13.1157 -8.96739 0 
1029 1 -11.9828 -8.90783 0 
932 1 -10.2541 -9.79182 0 
1031 1 -10.8502 -8.84612 0 
934 1 -9.12328 -9.72956 0 
1033 1 -9.71817 -8.78256 0 
936 1 -7.99354 -9.66633 0 
1035 1 -8.58709 -8.71729 0 
938 1 -6.86512 -9.60269 0 
940 1 -5.73799 -9.5393 0 
942 1 -4.61232 -9.47727 0 
944 1 -3.48772 -9.41769 0 
946 1 -2.3637 -9.36194 0 
948 1 -1.23982 -9.31106 0 
950 1 -0.115559 -9.26507 0 
952 1 1.00936 -9.22377 0 
954 1 2.13506 -9.18672 0 
956 1 3.26149 -9.15311 0 
958 1 4.38862 -9.12277 0 
960 1 5.51645 -9.09509 0 
962 1 6.64483 -9.06963 0 
964 1 7.77369 -9.04626 0 
966 1 8.90301 -9.02472 0 
968 1 10.0326 -9.00481 0 
970 1 11.1626 -8.98654 0 
972 1 12.2926 -8.96975 0 
974 1 13.4229 -8.95453 0 
976 1 14.5532 -8.94059 0 
978 1 15.6836 -8.92788 0 
980 1 16.8142 -8.91627 0 
982 1 17.9447 -8.90569 0 
984 1 19.0754 -8.89599 0 
986 1 20.206 -8.88725 0 
988 1 21.3367 -8.87925 0 
990 1 22.4676 -8.87193 0 
992 1 23.5985 -8.86518 0 
994 1 24.7295 -8.85879 0 
996 2 25.8608 -8.85435 0 
998 2 26.9933 -8.85174 0 
1000 2 28.1257 -8.84931 0 
1002 2 -27.2783 -8.57905 0 
1101 2 -27.8711 -7.62598 0 
1004 2 -26.1516 -8.54247 0 
1103 2 -26.7449 -7.58983 0 
1006 2 -25.0246 -8.50509 0 
1105 2 -25.6186 -7.5529 0 
1008 1 -23.8963 -8.46535 0 
1107 2 -24.492 -7.51516 0 
1010 1 -22.7671 -8.42314 0 
1012 1 -21.6373 -8.37949 0 
1014 1 -20.507 -8.3344 0 
1016 1 -19.3763 -8.28766 0 
1018 1 -18.2453 -8.23908 0 
1020 1 -17.1137 -8.18861 0 
1022 1 -15.9816 -8.13612 0 
1024 1 -14.8489 -8.08144 0 
1026 1 -13.7159 -8.02447 0 
1028 1 -12.5827 -7.96498 0 
1030 1 -11.4493 -7.90291 0 
1032 1 -10.3161 -7.83832 0 
1034 1 -9.18373 -7.77148 0 
1036 1 -8.05234 -7.70264 0 
1037 1 -7.45735 -8.65098 0 
1038 1 -6.92258 -7.63279 0 
1039 1 -6.32917 -8.58448 0 
1041 1 -5.20255 -8.51841 0 
1043 1 -4.07735 -8.45466 0 
1045 1 -2.95309 -8.39476 0 
1047 1 -1.82907 -8.34008 0 
1049 1 -0.704742 -8.29122 0 
1051 1 0.420403 -8.24778 0 
1053 1 1.54652 -8.20915 0 
1055 1 2.67345 -8.17465 0 
1057 1 3.80129 -8.14345 0 
1059 1 4.92991 -8.11527 0 
1061 1 6.05916 -8.08939 0 
1063 1 7.18887 -8.06562 0 
1065 1 8.31901 -8.04384 0 
1067 1 9.44951 -8.02367 0 
1069 1 10.5802 -8.00515 0 
1071 1 11.711 -7.98808 0 
1073 1 12.8421 -7.97256 0 
1075 1 13.9733 -7.95841 0 
1077 1 15.1045 -7.94555 0 
1079 1 16.2356 -7.93384 0 
1081 1 17.3669 -7.92311 0 
1083 1 18.4981 -7.91347 0 
1085 1 19.6294 -7.90468 0 
1087 1 20.7607 -7.89677 0 
1089 1 21.892 -7.88962 0 
1091 1 23.0234 -7.88307 0 
1093 1 24.1548 -7.87703 0 
1095 2 25.2861 -7.87134 0 
1097 2 26.419 -7.86899 0 
1099 2 27.5519 -7.8668 0 
1102 2 -27.3381 -6.63684 0 
1104 2 -26.2124 -6.60035 0 
1106 2 -25.0865 -6.56307 0 
1108 1 -23.9595 -6.52392 0 
1109 1 -23.3635 -7.4739 0 
1110 1 -22.8318 -6.48241 0 
1111 1 -22.2346 -7.4313 0 
1112 1 -21.7035 -6.43936 0 
1113 1 -21.1052 -7.38716 0 
1114 1 -20.5747 -6.39461 0 
1115 1 -19.9754 -7.34133 0 
1116 1 -19.4454 -6.34802 0 
1117 1 -18.8452 -7.29377 0 
1119 1 -17.7144 -7.24429 0 
1121 1 -16.583 -7.19267 0 
1123 1 -15.451 -7.13885 0 
1125 1 -14.3183 -7.08258 0 
1127 1 -13.1852 -7.02361 0 
1129 1 -12.0517 -6.96186 0 
1131 1 -10.9178 -6.89696 0 
1133 1 -9.78403 -6.82895 0 
1135 1 -8.65098 -6.75819 0 
1137 1 -7.51928 -6.68515 0 
1139 1 -6.38975 -6.61092 0 
1040 1 -5.79484 -7.56278 0 
1141 1 -5.26243 -6.53718 0 
1042 1 -4.66876 -7.49417 0 
1143 1 -4.13705 -6.46619 0 
1044 1 -3.54411 -7.42923 0 
1046 1 -2.41999 -7.37008 0 
1048 1 -1.29552 -7.31762 0 
1050 1 -0.170159 -7.27173 0 
1052 1 0.956364 -7.23153 0 
1054 1 2.08404 -7.19584 0 
1056 1 3.21262 -7.16401 0 
1058 1 4.34215 -7.13522 0 
1060 1 5.47238 -7.1091 0 
1062 1 6.60314 -7.085 0 
1064 1 7.73433 -7.06288 0 
1066 1 8.86574 -7.04255 0 
1068 1 9.99736 -7.02375 0 
1070 1 11.1292 -7.00646 0 
1072 1 12.2611 -6.99067 0 
1074 1 13.3931 -6.97628 0 
1076 1 14.5251 -6.96323 0 
1078 1 15.6571 -6.95135 0 
1080 1 16.789 -6.94057 0 
1082 1 17.921 -6.9308 0 
1084 1 19.0529 -6.92206 0 
1086 1 20.1848 -6.91417 0 
1088 1 21.3167 -6.90705 0 
1090 1 22.4486 -6.90073 0 
1092 1 23.5806 -6.89496 0 
1094 1 24.7126 -6.8897 0 
1096 2 25.8451 -6.88616 0 
1098 2 26.9784 -6.88422 0 
1100 2 28.1116 -6.88241 0 
1201 2 -27.9311 -5.68349 0 
1203 2 -26.806 -5.64742 0 
1205 2 -25.6808 -5.61059 0 