ITEM: TIMESTEP
800
ITEM: NUMBER OF ATOMS
2850
ITEM: BOX BOUNDS ff ff pp
-42.092 42.092
-42.092 42.092
-0.280613 0.280613
ITEM: ATOMS id type xu yu zu 
1 2 -27.3398 -28.9988 0 
3 2 -26.2107 -28.9642 0 
5 2 -25.0816 -28.9291 0 
7 2 -23.9525 -28.8936 0 
9 2 -22.8235 -28.8577 0 
11 2 -21.6944 -28.8213 0 
13 2 -20.5655 -28.7844 0 
15 2 -19.4366 -28.7472 0 
17 2 -18.3079 -28.7095 0 
19 2 -17.1793 -28.6715 0 
21 2 -16.0508 -28.6331 0 
23 2 -14.9226 -28.5944 0 
25 2 -13.7947 -28.5554 0 
27 2 -12.667 -28.5163 0 
29 2 -11.5396 -28.477 0 
31 2 -10.4126 -28.4376 0 
33 2 -9.28592 -28.3982 0 
35 2 -8.15967 -28.3589 0 
37 2 -7.03386 -28.3198 0 
39 2 -5.90848 -28.281 0 
2 2 -26.7941 -28.0086 0 
4 2 -25.6649 -27.9736 0 
6 2 -24.5357 -27.9381 0 
8 2 -23.4065 -27.902 0 
10 2 -22.2773 -27.8656 0 
12 2 -21.1481 -27.8286 0 
14 2 -20.019 -27.7912 0 
16 2 -18.89 -27.7533 0 
18 2 -17.7611 -27.715 0 
20 2 -16.6324 -27.6763 0 
22 2 -15.5039 -27.6373 0 
24 2 -14.3755 -27.5979 0 
26 2 -13.2475 -27.5582 0 
28 2 -12.1197 -27.5183 0 
30 2 -10.9923 -27.4783 0 
32 2 -9.86522 -27.4382 0 
34 2 -8.73856 -27.3981 0 
36 2 -7.61233 -27.3581 0 
38 2 -6.48656 -27.3184 0 
40 2 -5.36126 -27.2789 0 
41 2 -4.78357 -28.2426 0 
42 2 -4.23645 -27.24 0 
43 2 -3.65912 -28.2046 0 
44 2 -3.11213 -27.2015 0 
45 2 -2.53513 -28.1673 0 
46 2 -1.98828 -27.1638 0 
47 2 -1.41159 -28.1307 0 
48 2 -0.8649 -27.1269 0 
49 2 -0.288464 -28.095 0 
51 2 0.834263 -28.0602 0 
53 2 1.95663 -28.0264 0 
55 2 3.07869 -27.9937 0 
57 2 4.20048 -27.9622 0 
59 2 5.32207 -27.9319 0 
61 2 6.4435 -27.9029 0 
63 2 7.56483 -27.8752 0 
65 2 8.68613 -27.8488 0 
67 2 9.80743 -27.8237 0 
69 2 10.9288 -27.8 0 
71 2 12.0503 -27.7775 0 
73 2 13.1719 -27.7563 0 
75 2 14.2937 -27.7363 0 
77 2 15.4157 -27.7174 0 
79 2 16.538 -27.6997 0 
81 2 17.6605 -27.683 0 
83 2 18.7832 -27.6673 0 
85 2 19.9063 -27.6526 0 
87 2 21.0296 -27.6388 0 
89 2 22.1532 -27.6258 0 
91 2 23.2771 -27.6136 0 
93 2 24.4012 -27.6022 0 
95 2 25.5256 -27.5914 0 
97 2 26.6503 -27.5812 0 
99 2 27.7752 -27.5717 0 
101 2 -27.378 -27.0533 0 
103 2 -26.2487 -27.0183 0 
102 2 -26.833 -26.0633 0 
105 2 -25.1194 -26.9828 0 
104 2 -25.7037 -26.0278 0 
107 2 -23.9901 -26.9468 0 
106 2 -24.5742 -25.9918 0 
109 2 -22.8607 -26.9102 0 
108 1 -23.4464 -25.9565 0 
111 2 -21.7314 -26.8732 0 
113 2 -20.6021 -26.8357 0 
115 2 -19.4729 -26.7977 0 
117 2 -18.3437 -26.7591 0 
119 2 -17.2147 -26.7202 0 
121 2 -16.0858 -26.6808 0 
123 2 -14.9572 -26.641 0 
125 2 -13.8287 -26.6009 0 
127 2 -12.7006 -26.5605 0 
129 2 -11.5727 -26.5198 0 
131 2 -10.4452 -26.479 0 
133 2 -9.31813 -26.4382 0 
135 2 -8.19146 -26.3973 0 
137 2 -7.06526 -26.3566 0 
139 2 -5.93954 -26.3162 0 
141 2 -4.81433 -26.2762 0 
143 2 -3.68963 -26.2366 0 
145 2 -2.56545 -26.1977 0 
147 2 -1.44177 -26.1596 0 
50 2 0.258046 -27.0909 0 
149 2 -0.318563 -26.1224 0 
52 2 1.38059 -27.056 0 
151 2 0.804196 -26.0862 0 
54 2 2.50279 -27.0222 0 
153 2 1.92656 -26.0512 0 
56 2 3.62468 -26.9896 0 
155 2 3.04857 -26.0174 0 
58 2 4.74633 -26.9582 0 
157 2 4.1703 -25.9849 0 
60 2 5.86779 -26.9282 0 
159 2 5.2918 -25.9538 0 
62 2 6.98913 -26.8996 0 
64 2 8.11041 -26.8723 0 
66 2 9.23169 -26.8465 0 
68 2 10.353 -26.822 0 
70 2 11.4745 -26.7989 0 
72 2 12.596 -26.7771 0 
74 2 13.7178 -26.7566 0 
76 2 14.8398 -26.7373 0 
78 2 15.962 -26.7192 0 
80 2 17.0845 -26.7023 0 
82 2 18.2073 -26.6863 0 
84 2 19.3304 -26.6714 0 
86 2 20.4538 -26.6575 0 
88 2 21.5774 -26.6444 0 
90 2 22.7014 -26.6321 0 
92 2 23.8256 -26.6206 0 
94 2 24.9501 -26.6098 0 
96 2 26.0749 -26.5996 0 
98 2 27.2 -26.5901 0 
100 2 28.3253 -26.5811 0 
201 2 -27.4179 -25.1085 0 
203 2 -26.2885 -25.0731 0 
205 2 -25.159 -25.0372 0 
207 2 -24.0295 -25.0007 0 
209 1 -22.8996 -24.9641 0 
110 1 -22.316 -25.919 0 
211 1 -21.7681 -24.928 0 
112 1 -21.1843 -25.8819 0 
213 1 -20.6383 -24.8889 0 
114 1 -20.0545 -25.8431 0 
215 1 -19.5096 -24.8486 0 
116 1 -18.9262 -25.8034 0 
217 1 -18.3821 -24.8061 0 
118 1 -17.7976 -25.7621 0 
120 1 -16.6678 -25.7224 0 
122 1 -15.5387 -25.6812 0 
124 1 -14.4096 -25.6398 0 
126 1 -13.2801 -25.5988 0 
128 1 -12.152 -25.5569 0 
130 1 -11.0262 -25.5131 0 
132 1 -9.90024 -25.4707 0 
134 1 -8.77352 -25.4322 0 
136 1 -7.64728 -25.3923 0 
138 1 -6.5217 -25.3489 0 
140 1 -5.39673 -25.3079 0 
142 1 -4.27284 -25.2694 0 
144 1 -3.14954 -25.2286 0 
146 1 -2.02528 -25.1879 0 
148 1 -0.900974 -25.1493 0 
150 1 0.221352 -25.1113 0 
152 1 1.3431 -25.0753 0 
154 1 2.46579 -25.0411 0 
156 1 3.58784 -25.0083 0 
158 1 4.70916 -24.9775 0 
160 1 5.83087 -24.9466 0 
161 2 6.41316 -25.9242 0 
162 1 6.95253 -24.9179 0 
163 2 7.53443 -25.896 0 
164 1 8.07366 -24.8924 0 
165 2 8.65568 -25.8693 0 
167 2 9.77697 -25.844 0 
166 1 9.19452 -24.8668 0 
169 2 10.8984 -25.8202 0 
168 1 10.3153 -24.842 0 
171 2 12.0199 -25.7978 0 
170 1 11.4362 -24.818 0 
173 2 13.1416 -25.7768 0 
172 1 12.5567 -24.7959 0 
175 2 14.2636 -25.7571 0 
177 2 15.3858 -25.7386 0 
179 2 16.5083 -25.7213 0 
181 2 17.6311 -25.7052 0 
183 2 18.7543 -25.6901 0 
185 2 19.8777 -25.6759 0 
187 2 21.0014 -25.6627 0 
189 2 22.1254 -25.6504 0 
191 2 23.2498 -25.6388 0 
193 2 24.3744 -25.628 0 
195 2 25.4993 -25.6179 0 
197 2 26.6245 -25.6084 0 
199 2 27.75 -25.5994 0 
202 2 -26.8739 -24.1187 0 
204 2 -25.7444 -24.0828 0 
206 2 -24.6148 -24.0464 0 
208 1 -23.4836 -24.0084 0 
210 1 -22.3529 -23.9725 0 
212 1 -21.2239 -23.9335 0 
214 1 -20.0947 -23.8937 0 
216 1 -18.9665 -23.8505 0 
219 1 -17.2522 -24.765 0 
218 1 -17.8365 -23.8083 0 
221 1 -16.122 -24.7226 0 
220 1 -16.7059 -23.7661 0 
222 1 -15.5748 -23.7235 0 
223 1 -14.992 -24.6803 0 
224 1 -14.4454 -23.6796 0 
225 1 -13.8627 -24.6384 0 
226 1 -13.3184 -23.6348 0 
227 1 -12.7351 -24.5955 0 
229 1 -11.6096 -24.5501 0 
231 1 -10.4833 -24.5065 0 
233 1 -9.35527 -24.4669 0 
235 1 -8.22924 -24.4268 0 
237 1 -7.10539 -24.3828 0 
239 1 -5.97994 -24.3392 0 
241 1 -4.85393 -24.299 0 
243 1 -3.73065 -24.2587 0 
245 1 -2.60822 -24.2178 0 
247 1 -1.48473 -24.1782 0 
249 1 -0.361817 -24.1387 0 
251 1 0.760203 -24.1012 0 
253 1 1.88194 -24.0663 0 
255 1 3.00369 -24.0319 0 
257 1 4.12507 -23.9998 0 
259 1 5.24569 -23.9695 0 
261 1 6.36761 -23.9395 0 
263 1 7.48999 -23.9123 0 
265 1 8.61148 -23.8876 0 
267 1 9.73358 -23.863 0 
269 1 10.8554 -23.8387 0 
271 1 11.9767 -23.8163 0 
273 1 13.0967 -23.7961 0 
174 1 13.6766 -24.7774 0 
275 1 14.2159 -23.7798 0 
176 1 14.7975 -24.7608 0 
277 1 15.3374 -23.7662 0 
178 1 15.9211 -24.7448 0 
279 1 16.462 -23.7495 0 
180 1 17.0456 -24.7266 0 
281 1 17.5884 -23.7306 0 
182 1 18.1694 -24.7095 0 
283 1 18.7137 -23.7151 0 
184 1 19.2935 -24.6968 0 
285 1 19.8384 -23.707 0 
186 1 20.4206 -24.686 0 
287 1 20.9635 -23.6963 0 
188 1 21.5483 -24.6723 0 
289 1 22.0895 -23.6791 0 
190 1 22.6736 -24.6576 0 
291 1 23.2158 -23.6626 0 
192 1 23.7976 -24.6437 0 
293 1 24.3438 -23.65 0 
194 1 24.9221 -24.6338 0 
295 2 25.4729 -23.6443 0 
196 2 26.0488 -24.6264 0 
198 2 27.1745 -24.6176 0 
200 2 28.3003 -24.6093 0 
301 2 -27.4598 -23.1644 0 
303 2 -26.3303 -23.1287 0 
305 2 -25.2007 -23.0924 0 
307 2 -24.071 -23.0555 0 
309 1 -22.9398 -23.0181 0 
311 1 -21.8102 -22.9779 0 
313 1 -20.6809 -22.9375 0 
315 1 -19.5519 -22.8948 0 
317 1 -18.4209 -22.8526 0 
319 1 -17.2887 -22.8099 0 
321 1 -16.1579 -22.7678 0 
323 1 -15.0292 -22.7235 0 
325 1 -13.9013 -22.6769 0 
327 1 -12.7741 -22.6299 0 
228 1 -12.1928 -23.5891 0 
329 1 -11.6478 -22.5841 0 
230 1 -11.0662 -23.5445 0 
331 1 -10.5215 -22.5398 0 
232 1 -9.93856 -23.5026 0 
333 1 -9.39512 -22.4955 0 
234 1 -8.81309 -23.4612 0 
236 1 -7.68957 -23.4179 0 
238 1 -6.56379 -23.3737 0 
240 1 -5.43681 -23.3304 0 
242 1 -4.313 -23.2875 0 
244 1 -3.19099 -23.2457 0 
246 1 -2.06815 -23.2054 0 
248 1 -0.945242 -23.1657 0 
250 1 0.177086 -23.1273 0 
252 1 1.29834 -23.09 0 
254 1 2.41892 -23.0548 0 
256 1 3.54054 -23.0223 0 
258 1 4.6622 -22.9909 0 
260 1 5.78322 -22.9613 0 
262 1 6.90482 -22.9326 0 
264 1 8.02757 -22.9066 0 
266 1 9.15126 -22.8838 0 
268 1 10.2746 -22.8595 0 
270 1 11.3966 -22.8364 0 
272 1 12.5171 -22.8162 0 
274 1 13.6386 -22.7984 0 
276 1 14.7604 -22.783 0 
278 1 15.882 -22.769 0 
280 1 17.0062 -22.7532 0 
282 1 18.133 -22.7354 0 
284 1 19.26 -22.7237 0 
286 1 20.3844 -22.7151 0 
288 1 21.5085 -22.7023 0 
290 1 22.6361 -22.6853 0 
292 1 23.7658 -22.6713 0 
294 1 24.896 -22.6613 0 
297 2 26.5987 -23.6355 0 
296 2 26.0228 -22.6533 0 
299 2 27.7248 -23.6273 0 
298 2 27.149 -22.6452 0 
300 2 28.2755 -22.6376 0 
302 2 -26.9167 -22.1747 0 
304 2 -25.7871 -22.1385 0 
306 2 -24.6574 -22.1018 0 
308 1 -23.5256 -22.0642 0 
310 1 -22.3959 -22.024 0 
312 1 -21.2672 -21.9817 0 
314 1 -20.1381 -21.9395 0 
316 1 -19.0061 -21.8981 0 
318 1 -17.872 -21.8559 0 
320 1 -16.7394 -21.8112 0 
322 1 -15.6106 -21.7666 0 
324 1 -14.4833 -21.7211 0 
326 1 -13.3555 -21.6737 0 
328 1 -12.228 -21.6258 0 
330 1 -11.1014 -21.5791 0 
332 1 -9.97493 -21.5335 0 
334 1 -8.84687 -21.4881 0 
335 1 -8.26963 -22.4522 0 
336 1 -7.71993 -21.4436 0 
337 1 -7.1442 -22.4098 0 
338 1 -6.597 -21.3983 0 
339 1 -6.01873 -22.3646 0 
340 1 -5.47466 -21.3512 0 
341 1 -4.89501 -22.3177 0 
342 1 -4.34973 -21.3063 0 
343 1 -3.7724 -22.2747 0 
345 1 -2.64939 -22.2336 0 
347 1 -1.52647 -22.1911 0 
349 1 -0.404361 -22.1504 0 
351 1 0.716463 -22.1121 0 
353 1 1.83751 -22.0751 0 
355 1 2.95921 -22.0417 0 
357 1 4.08088 -22.011 0 
359 1 5.20327 -21.981 0 
361 1 6.32504 -21.9515 0 
363 1 7.44693 -21.9256 0 
365 1 8.57006 -21.9038 0 
367 1 9.69307 -21.8813 0 
369 1 10.8163 -21.8576 0 
371 1 11.9384 -21.8349 0 
373 1 13.0597 -21.8168 0 
375 1 14.1811 -21.7992 0 
377 1 15.3027 -21.7838 0 
379 1 16.425 -21.7721 0 
381 1 17.5501 -21.7579 0 
383 1 18.6795 -21.7439 0 
385 1 19.8084 -21.7315 0 
387 1 20.9347 -21.7206 0 
389 1 22.061 -21.7083 0 
391 1 23.1899 -21.6946 0 
393 1 24.3195 -21.6833 0 
395 2 25.4466 -21.6709 0 
397 2 26.573 -21.6629 0 
399 2 27.6998 -21.6554 0 
401 2 -27.5037 -21.2208 0 
403 2 -26.3741 -21.1849 0 
402 2 -26.9617 -20.2313 0 
405 2 -25.2445 -21.1483 0 
404 2 -25.8321 -20.1949 0 
407 2 -24.1147 -21.111 0 
409 1 -22.9818 -21.07 0 
411 1 -21.8513 -21.0275 0 
413 1 -20.7202 -20.9853 0 
415 1 -19.5879 -20.9441 0 
417 1 -18.4557 -20.9024 0 
419 1 -17.3244 -20.8567 0 
421 1 -16.1935 -20.8103 0 
423 1 -15.0647 -20.7638 0 
425 1 -13.9375 -20.717 0 
427 1 -12.81 -20.6692 0 
429 1 -11.6808 -20.6218 0 
431 1 -10.5518 -20.5744 0 
433 1 -9.42427 -20.5276 0 
435 1 -8.29773 -20.481 0 
437 1 -7.173 -20.4332 0 
439 1 -6.05007 -20.3856 0 
441 1 -4.92657 -20.3405 0 
344 1 -3.22567 -21.2638 0 
443 1 -3.80219 -20.2956 0 
346 1 -2.10388 -21.2206 0 
445 1 -2.67886 -20.2506 0 
348 1 -0.981801 -21.1774 0 
447 1 -1.55689 -20.2068 0 
350 1 0.140136 -21.1354 0 
449 1 -0.435204 -20.163 0 
352 1 1.26112 -21.0968 0 
354 1 2.38269 -21.0609 0 
356 1 3.50462 -21.0275 0 
358 1 4.62649 -20.9986 0 
360 1 5.7484 -20.97 0 
362 1 6.87114 -20.9437 0 
364 1 7.99393 -20.9217 0 
366 1 9.1158 -20.9007 0 
368 1 10.2377 -20.879 0 
370 1 11.3605 -20.8553 0 
372 1 12.4836 -20.8337 0 
374 1 13.6049 -20.8144 0 
376 1 14.7264 -20.7983 0 
378 1 15.8487 -20.7861 0 
380 1 16.9722 -20.7758 0 
382 1 18.0988 -20.7639 0 
384 1 19.2275 -20.7503 0 
386 1 20.3555 -20.7376 0 
388 1 21.4833 -20.7284 0 
390 1 22.6125 -20.7184 0 
392 1 23.7433 -20.7064 0 
394 1 24.872 -20.6932 0 
396 2 25.9969 -20.6804 0 
398 2 27.1238 -20.673 0 
400 2 28.251 -20.6661 0 
501 2 -27.5497 -19.2779 0 
503 2 -26.4202 -19.2417 0 
505 2 -25.2906 -19.2049 0 
406 2 -24.7023 -20.1579 0 
507 2 -24.1608 -19.1673 0 
408 1 -23.5706 -20.117 0 
509 1 -23.0267 -19.1227 0 
410 1 -22.4391 -20.0744 0 
511 1 -21.8925 -19.0811 0 
412 1 -21.3058 -20.0334 0 
414 1 -20.1717 -19.992 0 
513 1 -20.7596 -19.0401 0 
416 1 -19.0387 -19.9489 0 
418 1 -17.9077 -19.9036 0 
420 1 -16.7766 -19.8566 0 
422 1 -15.6473 -19.8077 0 
424 1 -14.5198 -19.7592 0 
426 1 -13.3922 -19.7116 0 
428 1 -12.2629 -19.6655 0 
430 1 -11.1331 -19.6181 0 
432 1 -10.0048 -19.5693 0 
434 1 -8.87807 -19.5214 0 
436 1 -7.75234 -19.4731 0 
438 1 -6.62791 -19.4239 0 
440 1 -5.50405 -19.3755 0 
442 1 -4.3802 -19.3286 0 
444 1 -3.25668 -19.2818 0 
446 1 -2.13409 -19.235 0 
448 1 -1.01276 -19.1892 0 
450 1 0.109263 -19.1468 0 
451 1 0.687116 -20.1212 0 
452 1 1.23197 -19.1068 0 
453 1 1.80849 -20.0832 0 
454 1 2.35349 -19.0699 0 
455 1 2.92924 -20.0481 0 
456 1 3.47454 -19.0382 0 
457 1 4.05114 -20.0168 0 
458 1 4.59525 -19.0071 0 
459 1 5.17201 -19.9881 0 
461 1 6.29261 -19.962 0 
463 1 7.41462 -19.9383 0 
465 1 8.53772 -19.9164 0 
467 1 9.66 -19.8957 0 
469 1 10.7817 -19.8753 0 
471 1 11.9051 -19.8536 0 
473 1 13.0288 -19.831 0 
475 1 14.1523 -19.8135 0 
477 1 15.2753 -19.7992 0 
479 1 16.3989 -19.7881 0 
481 1 17.523 -19.7777 0 
483 1 18.65 -19.7674 0 
485 1 19.7778 -19.755 0 
487 1 20.9059 -19.7458 0 
489 1 22.0334 -19.7395 0 
491 1 23.1629 -19.7302 0 
493 1 24.2926 -19.7154 0 
495 2 25.4205 -19.6978 0 
497 2 26.5477 -19.6905 0 
499 2 27.6751 -19.6838 0 
502 2 -27.0088 -18.2886 0 
504 2 -25.8793 -18.252 0 
506 2 -24.7497 -18.2147 0 
508 1 -23.6167 -18.1735 0 
510 1 -22.4822 -18.1307 0 
512 1 -21.3481 -18.0883 0 
514 1 -20.2143 -18.0468 0 
515 1 -19.6263 -18.9979 0 
516 1 -19.0815 -18.0019 0 
517 1 -18.493 -18.9526 0 
518 1 -17.9508 -17.9531 0 
519 1 -17.3611 -18.9043 0 
520 1 -16.8206 -17.9017 0 
521 1 -16.2317 -18.8534 0 
522 1 -15.6893 -17.8517 0 
523 1 -15.1029 -18.8038 0 
525 1 -13.9741 -18.7559 0 
527 1 -12.845 -18.7085 0 
529 1 -11.717 -18.6612 0 
531 1 -10.5887 -18.6122 0 
533 1 -9.46006 -18.5626 0 
535 1 -8.33307 -18.5124 0 
537 1 -7.20785 -18.4615 0 
539 1 -6.08309 -18.4124 0 
541 1 -4.95738 -18.3633 0 
543 1 -3.83307 -18.3134 0 
545 1 -2.71146 -18.2647 0 
547 1 -1.59057 -18.217 0 
549 1 -0.468382 -18.1717 0 
551 1 0.653917 -18.1294 0 
553 1 1.77637 -18.0905 0 
555 1 2.89903 -18.0563 0 
557 1 4.02001 -18.0253 0 
559 1 5.14038 -17.9967 0 
460 1 5.71501 -18.9787 0 
561 1 6.26001 -17.9701 0 
462 1 6.83406 -18.954 0 
563 1 7.3797 -17.9479 0 
464 1 7.95519 -18.9323 0 
565 1 8.49989 -17.9268 0 
466 1 9.07834 -18.9101 0 
567 1 9.62267 -17.9055 0 
468 1 10.2014 -18.8904 0 
569 1 10.7463 -17.8846 0 
470 1 11.3237 -18.8722 0 
472 1 12.4478 -18.8508 0 
474 1 13.5738 -18.8305 0 
476 1 14.6983 -18.8138 0 
478 1 15.823 -18.8004 0 
480 1 16.9474 -18.7871 0 
482 1 18.0732 -18.7796 0 
484 1 19.2002 -18.7708 0 
486 1 20.33 -18.7633 0 
488 1 21.4591 -18.7553 0 
490 1 22.5865 -18.7496 0 
492 1 23.7137 -18.737 0 
494 1 24.8414 -18.7197 0 
496 2 25.9714 -18.7078 0 
498 2 27.0991 -18.7012 0 
500 2 28.2271 -18.6951 0 
601 2 -27.5979 -17.3354 0 
603 2 -26.4686 -17.2992 0 
605 2 -25.3391 -17.2621 0 
607 2 -24.2094 -17.2244 0 
609 1 -23.0744 -17.181 0 
611 1 -21.9397 -17.1386 0 
613 1 -20.8053 -17.0966 0 
615 1 -19.6723 -17.0512 0 
617 1 -18.5404 -17.0016 0 
619 1 -17.4094 -16.9514 0 
621 1 -16.2785 -16.9018 0 
524 1 -14.5588 -17.8027 0 
623 1 -15.148 -16.8514 0 
526 1 -13.4301 -17.7542 0 
625 1 -14.0187 -16.8006 0 
528 1 -12.302 -17.7049 0 
627 1 -12.8897 -16.7506 0 
530 1 -11.1735 -17.6558 0 
629 1 -11.7601 -16.7006 0 
532 1 -10.0442 -17.6048 0 
534 1 -8.91564 -17.551 0 
536 1 -7.78849 -17.4975 0 
538 1 -6.66112 -17.4476 0 
540 1 -5.5349 -17.3989 0 
542 1 -4.41109 -17.347 0 
544 1 -3.2881 -17.2946 0 
546 1 -2.1665 -17.2456 0 
548 1 -1.04512 -17.199 0 
550 1 0.0767038 -17.1523 0 
552 1 1.19831 -17.1098 0 
554 1 2.31958 -17.0742 0 
556 1 3.44099 -17.0418 0 
558 1 4.56255 -17.0132 0 
560 1 5.68287 -16.987 0 
562 1 6.80345 -16.9648 0 
564 1 7.92368 -16.9425 0 
566 1 9.04453 -16.9214 0 
568 1 10.1676 -16.8987 0 
571 1 11.8699 -17.8663 0 
570 1 11.2932 -16.8769 0 
573 1 12.9948 -17.8476 0 
572 1 12.4182 -16.8583 0 
575 1 14.1201 -17.8289 0 
574 1 13.5431 -16.8427 0 
577 1 15.2448 -17.8144 0 
576 1 14.6675 -16.828 0 
579 1 16.3688 -17.7996 0 
578 1 15.7913 -16.8148 0 
581 1 17.4951 -17.7898 0 
580 1 16.9173 -16.8039 0 
583 1 18.6213 -17.7827 0 
582 1 18.0446 -16.7944 0 
585 1 19.7497 -17.7786 0 
584 1 19.1728 -16.7897 0 
587 1 20.88 -17.7717 0 
586 1 20.3018 -16.7856 0 
589 1 22.0111 -17.7633 0 
588 1 21.4319 -16.7783 0 
591 1 23.1392 -17.7542 0 
590 1 22.5607 -16.7666 0 
593 1 24.2672 -17.7398 0 
592 1 23.6869 -16.7559 0 
595 2 25.3948 -17.725 0 
594 1 24.8158 -16.7435 0 
596 2 25.9465 -16.7357 0 
597 2 26.5229 -17.7186 0 
598 2 27.0751 -16.7299 0 
599 2 27.6512 -17.7126 0 
600 2 28.2039 -16.7246 0 
602 2 -27.0583 -16.3463 0 
604 2 -25.929 -16.3096 0 
606 2 -24.7995 -16.2721 0 
608 1 -23.6656 -16.2315 0 
610 1 -22.5304 -16.1893 0 
612 1 -21.3953 -16.1465 0 
614 1 -20.262 -16.1011 0 
616 1 -19.1302 -16.0518 0 
618 1 -17.9983 -16.0017 0 
620 1 -16.8678 -15.9518 0 
622 1 -15.7385 -15.9008 0 
624 1 -14.6092 -15.8473 0 
626 1 -13.4792 -15.7962 0 
628 1 -12.3493 -15.7454 0 
630 1 -11.2206 -15.6934 0 
631 1 -10.6308 -16.6485 0 
632 1 -10.0923 -15.6387 0 
633 1 -9.50245 -16.5932 0 
634 1 -8.96324 -15.5827 0 
635 1 -8.37389 -16.5378 0 
636 1 -7.83428 -15.529 0 
637 1 -7.24447 -16.4862 0 
639 1 -6.1179 -16.4349 0 
641 1 -4.99492 -16.3806 0 
643 1 -3.87204 -16.3267 0 
645 1 -2.74818 -16.2743 0 
647 1 -1.62594 -16.2237 0 
649 1 -0.506445 -16.1755 0 
651 1 0.614382 -16.1312 0 
653 1 1.73585 -16.0918 0 
655 1 2.85529 -16.0578 0 
657 1 3.9745 -16.0287 0 
659 1 5.09481 -16.0017 0 
661 1 6.2172 -15.979 0 
663 1 7.33851 -15.9563 0 
665 1 8.45966 -15.9346 0 
667 1 9.58167 -15.9139 0 
669 1 10.7074 -15.8925 0 
671 1 11.8343 -15.8697 0 
673 1 12.9609 -15.8535 0 
675 1 14.0872 -15.8395 0 
677 1 15.2134 -15.8277 0 
679 1 16.3383 -15.8184 0 
681 1 17.4654 -15.8097 0 
683 1 18.5934 -15.8006 0 
685 1 19.7222 -15.7958 0 
687 1 20.8505 -15.7906 0 
689 1 21.981 -15.7818 0 
691 1 23.1097 -15.7683 0 
693 1 24.2375 -15.7594 0 
695 2 25.3699 -15.7527 0 
697 2 26.4989 -15.7471 0 
699 2 27.6281 -15.742 0 
701 2 -27.6483 -15.3934 0 
703 2 -26.5193 -15.357 0 
705 2 -25.3901 -15.3199 0 
707 2 -24.2607 -15.282 0 
709 1 -23.1257 -15.2408 0 
711 1 -21.9898 -15.1976 0 
713 1 -20.8541 -15.1517 0 
715 1 -19.7217 -15.1029 0 
717 1 -18.59 -15.053 0 
719 1 -17.4583 -15.0019 0 
721 1 -16.3279 -14.9499 0 
723 1 -15.1993 -14.8955 0 
725 1 -14.0696 -14.8426 0 
727 1 -12.9395 -14.791 0 
729 1 -11.8104 -14.7382 0 
731 1 -10.6822 -14.6841 0 
733 1 -9.55343 -14.6285 0 
735 1 -8.42387 -14.5717 0 
638 1 -6.70717 -15.4738 0 
737 1 -7.29663 -14.5145 0 
640 1 -5.58337 -15.4163 0 
739 1 -6.17155 -14.4538 0 
642 1 -4.45985 -15.3595 0 
741 1 -5.04739 -14.3957 0 
644 1 -3.33597 -15.3047 0 
743 1 -3.92438 -14.3385 0 
646 1 -2.21445 -15.2502 0 
648 1 -1.0943 -15.1976 0 
650 1 0.0264617 -15.1518 0 
652 1 1.14761 -15.11 0 
654 1 2.26865 -15.0719 0 
656 1 3.38819 -15.0403 0 
658 1 4.50606 -15.013 0 
660 1 5.62629 -14.9907 0 
662 1 6.74872 -14.9689 0 
664 1 7.87226 -14.9472 0 
666 1 8.99519 -14.9249 0 
668 1 10.1189 -14.9067 0 
670 1 11.2443 -14.8875 0 
672 1 12.3725 -14.8686 0 
674 1 13.5004 -14.8522 0 
676 1 14.6302 -14.8402 0 
678 1 15.7593 -14.8284 0 
680 1 16.8873 -14.8232 0 
682 1 18.013 -14.8143 0 
684 1 19.141 -14.8073 0 
686 1 20.2681 -14.7995 0 
688 1 21.397 -14.7962 0 
690 1 22.5286 -14.7852 0 
692 1 23.6616 -14.776 0 
694 1 24.7922 -14.7689 0 
696 2 25.9226 -14.7642 0 
698 2 27.0521 -14.7592 0 
700 2 28.1818 -14.7547 0 
702 2 -27.11 -14.4044 0 
801 2 -27.7009 -13.4516 0 
704 2 -25.9811 -14.3676 0 
803 2 -26.5724 -13.4152 0 
706 2 -24.852 -14.3301 0 
805 2 -25.4437 -13.3781 0 
708 1 -23.7186 -14.2915 0 
807 2 -24.3146 -13.3401 0 
710 1 -22.5841 -14.2491 0 
809 1 -23.18 -13.3 0 
712 1 -21.4496 -14.2041 0 
714 1 -20.3166 -14.155 0 
716 1 -19.1843 -14.1052 0 
718 1 -18.0506 -14.0531 0 
720 1 -16.9183 -13.9995 0 
722 1 -15.7882 -13.9449 0 
724 1 -14.6586 -13.8909 0 
726 1 -13.5288 -13.8381 0 
728 1 -12.3991 -13.7841 0 
730 1 -11.2702 -13.7286 0 
732 1 -10.1407 -13.6725 0 
734 1 -9.01098 -13.6158 0 
736 1 -7.88311 -13.5549 0 
738 1 -6.75805 -13.4929 0 
740 1 -5.63422 -13.4327 0 
742 1 -4.51263 -13.373 0 
744 1 -3.39275 -13.3115 0 
745 1 -2.80354 -14.2793 0 
746 1 -2.27267 -13.2519 0 
747 1 -1.68324 -14.2241 0 
748 1 -1.15258 -13.1989 0 
749 1 -0.561998 -14.1741 0 
751 1 0.55896 -14.1272 0 
753 1 1.68049 -14.0869 0 
755 1 2.80253 -14.0517 0 
757 1 3.92184 -14.021 0 
759 1 5.04094 -13.999 0 
761 1 6.16183 -13.9802 0 
763 1 7.28426 -13.9611 0 
765 1 8.40809 -13.9393 0 
767 1 9.53444 -13.9179 0 
769 1 10.6591 -13.8999 0 
771 1 11.7838 -13.8854 0 
773 1 12.9113 -13.8691 0 
775 1 14.0419 -13.8554 0 
777 1 15.1733 -13.8415 0 
779 1 16.3061 -13.8335 0 
781 1 17.436 -13.8257 0 
783 1 18.5645 -13.8206 0 
785 1 19.6921 -13.8114 0 
787 1 20.8206 -13.8075 0 
789 1 21.948 -13.8018 0 
791 1 23.0808 -13.7938 0 
793 1 24.2141 -13.7873 0 
795 2 25.3462 -13.7811 0 
797 2 26.4761 -13.7764 0 
799 2 27.6062 -13.772 0 
802 2 -27.164 -12.4626 0 
804 2 -26.0357 -12.4259 0 
806 2 -24.9071 -12.3884 0 
808 1 -23.776 -12.3499 0 
810 1 -22.6427 -12.3082 0 
811 1 -22.0461 -13.2566 0 
812 1 -21.5106 -12.2619 0 
813 1 -20.9129 -13.2086 0 
814 1 -20.3772 -12.2107 0 
815 1 -19.7796 -13.1571 0 
816 1 -19.2427 -12.159 0 
817 1 -18.6464 -13.1062 0 
818 1 -18.1094 -12.1059 0 
819 1 -17.5134 -13.0515 0 
821 1 -16.3814 -12.9967 0 
823 1 -15.2505 -12.942 0 
825 1 -14.1204 -12.887 0 
827 1 -12.9913 -12.831 0 
829 1 -11.8616 -12.7745 0 
831 1 -10.7304 -12.7185 0 
833 1 -9.59984 -12.661 0 
835 1 -8.47215 -12.5995 0 
837 1 -7.34699 -12.5343 0 
839 1 -6.22287 -12.4708 0 
841 1 -5.09963 -12.4085 0 
843 1 -3.98068 -12.3436 0 
845 1 -2.86217 -12.2814 0 
847 1 -1.74211 -12.225 0 
750 1 -0.0330985 -13.1488 0 
849 1 -0.622533 -12.1739 0 
851 1 0.497919 -12.1289 0 
752 1 1.08819 -13.1061 0 
853 1 1.61727 -12.0881 0 
754 1 2.20989 -13.0692 0 
855 1 2.73728 -12.0535 0 
756 1 3.33119 -13.0337 0 
758 1 4.45263 -13.0064 0 
760 1 5.5744 -12.9884 0 
762 1 6.69759 -12.9722 0 
764 1 7.82103 -12.9537 0 
766 1 8.94681 -12.934 0 
768 1 10.0747 -12.9116 0 
770 1 11.2009 -12.8956 0 
772 1 12.3264 -12.8839 0 
774 1 13.4556 -12.8709 0 
776 1 14.5872 -12.8584 0 
778 1 15.7204 -12.8474 0 
780 1 16.8533 -12.8379 0 
782 1 17.9851 -12.832 0 
784 1 19.1145 -12.8258 0 
786 1 20.2453 -12.8202 0 
788 1 21.374 -12.8162 0 
790 1 22.5033 -12.8117 0 
792 1 23.6376 -12.804 0 
794 1 24.7697 -12.7978 0 
796 2 25.9 -12.7934 0 
798 2 27.0306 -12.7893 0 
800 2 28.1612 -12.7854 0 
901 2 -27.7557 -11.5099 0 
903 2 -26.6279 -11.4735 0 
905 2 -25.4997 -11.4364 0 
907 2 -24.3713 -11.3985 0 
909 1 -23.2381 -11.3581 0 
911 1 -22.1067 -11.3132 0 
913 1 -20.9736 -11.2652 0 
915 1 -19.8389 -11.2134 0 
917 1 -18.7049 -11.1607 0 
820 1 -16.9762 -12.0505 0 
919 1 -17.5724 -11.1055 0 
822 1 -15.8448 -11.9948 0 
921 1 -16.4405 -11.0486 0 
824 1 -14.7152 -11.9378 0 
923 1 -15.3101 -10.9903 0 
826 1 -13.5854 -11.8794 0 
925 1 -14.1785 -10.9311 0 
828 1 -12.4541 -11.8227 0 
927 1 -13.046 -10.8739 0 
830 1 -11.3222 -11.7672 0 
832 1 -10.1913 -11.7092 0 
834 1 -9.06303 -11.647 0 
836 1 -7.93744 -11.5791 0 
838 1 -6.81182 -11.5125 0 
840 1 -5.68808 -11.4465 0 
842 1 -4.56908 -11.3789 0 
844 1 -3.44939 -11.3151 0 
846 1 -2.32935 -11.2554 0 
848 1 -1.20866 -11.1994 0 
850 1 -0.0881948 -11.1506 0 
852 1 1.03204 -11.1053 0 
854 1 2.15218 -11.0688 0 
857 1 3.85961 -12.0207 0 
856 1 3.27061 -11.038 0 
859 1 4.9831 -11.9949 0 
858 1 4.39294 -11.0092 0 
861 1 6.10701 -11.979 0 
860 1 5.51866 -10.9853 0 
863 1 7.23211 -11.9641 0 
862 1 6.64326 -10.9706 0 
865 1 8.35866 -11.9468 0 
864 1 7.76836 -10.9567 0 
867 1 9.48704 -11.9279 0 
869 1 10.6163 -11.9082 0 
871 1 11.7435 -11.8952 0 
873 1 12.8722 -11.8859 0 
875 1 14.0055 -11.8751 0 
877 1 15.1402 -11.8639 0 
879 1 16.2739 -11.8544 0 
881 1 17.4077 -11.8445 0 
883 1 18.5386 -11.8394 0 
885 1 19.6666 -11.8349 0 
887 1 20.7989 -11.831 0 
889 1 21.9273 -11.8259 0 
891 1 23.0564 -11.8233 0 
893 1 24.1903 -11.8165 0 
895 2 25.3239 -11.8103 0 
897 2 26.4549 -11.8064 0 
899 2 27.586 -11.8028 0 
902 2 -27.2202 -10.5209 0 
904 2 -26.0925 -10.4842 0 
906 2 -24.9646 -10.4468 0 
908 1 -23.8347 -10.4071 0 
910 1 -22.7029 -10.3637 0 
912 1 -21.5696 -10.3194 0 
914 1 -20.4359 -10.2696 0 
916 1 -19.3018 -10.2166 0 
918 1 -18.1689 -10.1608 0 
920 1 -17.0362 -10.1033 0 
922 1 -15.9047 -10.0439 0 
924 1 -14.7725 -9.9857 0 
926 1 -13.6394 -9.92751 0 
928 1 -12.5075 -9.87067 0 
929 1 -11.9139 -10.8177 0 
930 1 -11.3746 -9.81093 0 
931 1 -10.7828 -10.7595 0 
932 1 -10.2436 -9.74736 0 
933 1 -9.65331 -10.6961 0 
935 1 -8.52588 -10.6279 0 
937 1 -7.39939 -10.5574 0 
939 1 -6.27614 -10.4883 0 
941 1 -5.15398 -10.4184 0 
943 1 -4.03389 -10.3509 0 
945 1 -2.91372 -10.285 0 
947 1 -1.79386 -10.2233 0 
949 1 -0.673214 -10.1702 0 
951 1 0.446344 -10.124 0 
953 1 1.56793 -10.0856 0 
955 1 2.6889 -10.0494 0 
957 1 3.80937 -10.0228 0 
959 1 4.93293 -9.99877 0 
961 1 6.0595 -9.97699 0 
963 1 7.18463 -9.96358 0 
965 1 8.31128 -9.95226 0 
866 1 8.89676 -10.9415 0 
967 1 9.44001 -9.93806 0 
868 1 10.0269 -10.9243 0 
969 1 10.5709 -9.92526 0 
870 1 11.1578 -10.9084 0 
971 1 11.7047 -9.91222 0 
872 1 12.2876 -10.8988 0 
973 1 12.8392 -9.90401 0 
874 1 13.4185 -10.8919 0 
975 1 13.9714 -9.89973 0 
876 1 14.5547 -10.8821 0 
977 1 15.1077 -9.89061 0 
878 1 15.6932 -10.8713 0 
979 1 16.245 -9.87897 0 
880 1 16.828 -10.8609 0 
981 1 17.3807 -9.87124 0 
882 1 17.9642 -10.854 0 
983 1 18.5163 -9.86359 0 
884 1 19.0936 -10.8482 0 
985 1 19.6466 -9.86092 0 
886 1 20.2224 -10.8466 0 
987 1 20.7766 -9.85418 0 
888 1 21.3531 -10.8389 0 
890 1 22.4824 -10.8367 0 
989 1 21.9089 -9.8502 0 
892 1 23.6112 -10.8346 0 
991 1 23.0377 -9.84764 0 
894 1 24.7451 -10.8313 0 
993 1 24.1685 -9.84619 0 
896 2 25.8793 -10.8234 0 
995 2 25.3037 -9.84035 0 
898 2 27.0108 -10.8201 0 
997 2 26.4357 -9.83726 0 
900 2 28.1423 -10.817 0 
999 2 27.5677 -9.8344 0 
1001 2 -27.8125 -9.56805 0 
1003 2 -26.6854 -9.5318 0 
1005 2 -25.5581 -9.49477 0 
1007 2 -24.4305 -9.45693 0 
1009 1 -23.2984 -9.41504 0 
1011 1 -22.165 -9.37221 0 
1013 1 -21.0321 -9.32581 0 
1015 1 -19.8991 -9.27435 0 
1017 1 -18.7659 -9.21738 0 
1019 1 -17.6334 -9.15992 0 
1021 1 -16.501 -9.10004 0 
1023 1 -15.3687 -9.04104 0 
1025 1 -14.2349 -8.98392 0 
1027 1 -13.1011 -8.92482 0 
1029 1 -11.9667 -8.86433 0 
1031 1 -10.8352 -8.79919 0 
934 1 -9.11584 -9.67787 0 
1033 1 -9.70802 -8.72902 0 
936 1 -7.99059 -9.6066 0 
1035 1 -8.58015 -8.6581 0 
938 1 -6.86395 -9.53464 0 
1037 1 -7.45192 -8.58476 0 
940 1 -5.73908 -9.46121 0 
1039 1 -6.3259 -8.50734 0 
942 1 -4.61623 -9.38842 0 
944 1 -3.49563 -9.31717 0 
946 1 -2.37637 -9.24937 0 
948 1 -1.25628 -9.19098 0 
950 1 -0.137382 -9.14029 0 
952 1 0.982978 -9.09982 0 
954 1 2.10343 -9.06275 0 
956 1 3.22706 -9.03243 0 
958 1 4.3496 -9.00905 0 
960 1 5.47517 -8.9898 0 
962 1 6.60212 -8.96986 0 
964 1 7.72738 -8.95855 0 
966 1 8.85511 -8.94804 0 
968 1 9.9857 -8.93754 0 
970 1 11.1169 -8.92898 0 
972 1 12.254 -8.91867 0 
974 1 13.3928 -8.911 0 
976 1 14.5283 -8.90762 0 
978 1 15.6661 -8.89817 0 
980 1 16.8008 -8.88855 0 
982 1 17.9343 -8.88135 0 
984 1 19.0709 -8.87522 0 
986 1 20.2014 -8.87022 0 
988 1 21.332 -8.86387 0 
990 1 22.463 -8.862 0 
992 1 23.5922 -8.85847 0 
994 1 24.7258 -8.85824 0 
996 2 25.8608 -8.85435 0 
998 2 26.9933 -8.85174 0 
1000 2 28.1257 -8.84931 0 
1002 2 -27.2783 -8.57905 0 
1101 2 -27.8711 -7.62598 0 
1004 2 -26.1516 -8.54247 0 
1103 2 -26.7449 -7.58983 0 
1006 2 -25.0246 -8.50509 0 
1105 2 -25.6186 -7.5529 0 
1008 1 -23.8953 -8.46563 0 
1107 2 -24.492 -7.51516 0 
1010 1 -22.7636 -8.42428 0 
1012 1 -21.6308 -8.38018 0 
1014 1 -20.4988 -8.33092 0 
1016 1 -19.3664 -8.27643 0 
1018 1 -18.2332 -8.21775 0 
1020 1 -17.1016 -8.15965 0 
1022 1 -15.9686 -8.09836 0 
1024 1 -14.8342 -8.04192 0 
1026 1 -13.6996 -7.98248 0 
1028 1 -12.5659 -7.9205 0 
1030 1 -11.4337 -7.85342 0 
1032 1 -10.3043 -7.78326 0 
1034 1 -9.17338 -7.71133 0 
1036 1 -8.04607 -7.6385 0 
1038 1 -6.91951 -7.55777 0 
1041 1 -5.20102 -8.42988 0 
1040 1 -5.79356 -7.47616 0 
1043 1 -4.08002 -8.35214 0 
1042 1 -4.66888 -7.39483 0 
1045 1 -2.96106 -8.27879 0 
1044 1 -3.54802 -7.30994 0 
1047 1 -1.84326 -8.21136 0 
1049 1 -0.724018 -8.15445 0 
1051 1 0.396056 -8.10927 0 
1053 1 1.5159 -8.0718 0 
1055 1 2.63811 -8.04289 0 
1057 1 3.76336 -8.01426 0 
1059 1 4.89123 -7.99756 0 
1061 1 6.01863 -7.98104 0 
1063 1 7.14751 -7.96474 0 
1065 1 8.27394 -7.95462 0 
1067 1 9.40208 -7.9452 0 
1069 1 10.5349 -7.9387 0 
1071 1 11.6686 -7.93526 0 
1073 1 12.807 -7.9256 0 
1075 1 13.9455 -7.91968 0 
1077 1 15.0804 -7.91501 0 
1079 1 16.2213 -7.90768 0 
1081 1 17.3542 -7.89872 0 
1083 1 18.4894 -7.8913 0 
1085 1 19.6259 -7.88553 0 
1087 1 20.7568 -7.87818 0 
1089 1 21.8889 -7.87618 0 
1091 1 23.0222 -7.87317 0 
1093 1 24.1543 -7.8718 0 
1095 2 25.2861 -7.87134 0 
1097 2 26.419 -7.86899 0 
1099 2 27.5519 -7.8668 0 
1102 2 -27.3381 -6.63684 0 
1104 2 -26.2124 -6.60035 0 
1106 2 -25.0865 -6.56307 0 
1108 1 -23.959 -6.52465 0 
1109 1 -23.3611 -7.47511 0 
1110 1 -22.831 -6.48316 0 
1111 1 -22.2298 -7.43169 0 
1112 1 -21.7006 -6.43713 0 
1113 1 -21.0995 -7.38487 0 
1114 1 -20.5694 -6.39019 0 
1115 1 -19.9681 -7.33456 0 
1116 1 -19.4382 -6.33731 0 
1117 1 -18.8349 -7.27768 0 
1119 1 -17.7031 -7.21842 0 
1121 1 -16.5712 -7.15935 0 
1123 1 -15.4363 -7.10028 0 
1125 1 -14.3024 -7.04346 0 
1127 1 -13.1684 -6.97962 0 
1129 1 -12.0354 -6.91273 0 
1131 1 -10.902 -6.84128 0 
1133 1 -9.76987 -6.76885 0 
1135 1 -8.64109 -6.69224 0 
1137 1 -7.51468 -6.61172 0 
1139 1 -6.38625 -6.52916 0 
1141 1 -5.25877 -6.44238 0 
1143 1 -4.13643 -6.3506 0 
1145 1 -3.01977 -6.25078 0 
1046 1 -2.43036 -7.2304 0 
1147 1 -1.90101 -6.17971 0 
1048 1 -1.31096 -7.16831 0 
1050 1 -0.190651 -7.12168 0 
1052 1 0.931794 -7.08169 0 
1054 1 2.05383 -7.04858 0 
1056 1 3.17534 -7.02173 0 
1058 1 4.30296 -7.00025 0 
1060 1 5.43267 -6.98457 0 
1062 1 6.5633 -6.97611 0 
1064 1 7.69329 -6.96237 0 
1066 1 8.82328 -6.9536 0 
1068 1 9.95195 -6.94594 0 
1070 1 11.0881 -6.94463 0 
1072 1 12.2251 -6.94313 0 
1074 1 13.3677 -6.936 0 
1076 1 14.5032 -6.92692 0 
1078 1 15.6389 -6.92473 0 
1080 1 16.7754 -6.91725 0 
1082 1 17.9086 -6.90968 0 
1084 1 19.0478 -6.90041 0 
1086 1 20.1838 -6.89373 0 
1088 1 21.315 -6.88809 0 
1090 1 22.4465 -6.88812 0 
1092 1 23.5796 -6.88479 0 
1094 1 24.7114 -6.88517 0 
1096 2 25.8451 -6.88616 0 
1098 2 26.9784 -6.88422 0 
1100 2 28.1116 -6.88241 0 