ITEM: TIMESTEP
3600
ITEM: NUMBER OF ATOMS
2850
ITEM: BOX BOUNDS ff ff pp
-42.092 42.092
-42.092 42.092
-0.280613 0.280613
ITEM: ATOMS id type xu yu zu 
1 2 -27.3398 -28.9988 0 
3 2 -26.2107 -28.9642 0 
5 2 -25.0816 -28.9291 0 
7 2 -23.9525 -28.8936 0 
9 2 -22.8235 -28.8577 0 
11 2 -21.6944 -28.8213 0 
13 2 -20.5655 -28.7844 0 
15 2 -19.4366 -28.7472 0 
17 2 -18.3079 -28.7095 0 
19 2 -17.1793 -28.6715 0 
21 2 -16.0508 -28.6331 0 
23 2 -14.9226 -28.5944 0 
25 2 -13.7947 -28.5554 0 
27 2 -12.667 -28.5163 0 
29 2 -11.5396 -28.477 0 
31 2 -10.4126 -28.4376 0 
33 2 -9.28592 -28.3982 0 
35 2 -8.15967 -28.3589 0 
37 2 -7.03386 -28.3198 0 
39 2 -5.90848 -28.281 0 
2 2 -26.7941 -28.0086 0 
4 2 -25.6649 -27.9736 0 
6 2 -24.5357 -27.9381 0 
8 2 -23.4065 -27.902 0 
10 2 -22.2773 -27.8656 0 
12 2 -21.1481 -27.8286 0 
14 2 -20.019 -27.7912 0 
16 2 -18.89 -27.7533 0 
18 2 -17.7611 -27.715 0 
20 2 -16.6324 -27.6763 0 
22 2 -15.5039 -27.6373 0 
24 2 -14.3755 -27.5979 0 
26 2 -13.2475 -27.5582 0 
28 2 -12.1197 -27.5183 0 
30 2 -10.9923 -27.4783 0 
32 2 -9.86522 -27.4382 0 
34 2 -8.73856 -27.3981 0 
36 2 -7.61233 -27.3581 0 
38 2 -6.48656 -27.3184 0 
40 2 -5.36126 -27.2789 0 
41 2 -4.78357 -28.2426 0 
42 2 -4.23645 -27.24 0 
43 2 -3.65912 -28.2046 0 
44 2 -3.11213 -27.2015 0 
45 2 -2.53513 -28.1673 0 
46 2 -1.98828 -27.1638 0 
47 2 -1.41159 -28.1307 0 
48 2 -0.8649 -27.1269 0 
49 2 -0.288464 -28.095 0 
51 2 0.834263 -28.0602 0 
53 2 1.95663 -28.0264 0 
55 2 3.07869 -27.9937 0 
57 2 4.20048 -27.9622 0 
59 2 5.32207 -27.9319 0 
61 2 6.4435 -27.9029 0 
63 2 7.56483 -27.8752 0 
65 2 8.68613 -27.8488 0 
67 2 9.80743 -27.8237 0 
69 2 10.9288 -27.8 0 
71 2 12.0503 -27.7775 0 
73 2 13.1719 -27.7563 0 
75 2 14.2937 -27.7363 0 
77 2 15.4157 -27.7174 0 
79 2 16.538 -27.6997 0 
81 2 17.6605 -27.683 0 
83 2 18.7832 -27.6673 0 
85 2 19.9063 -27.6526 0 
87 2 21.0296 -27.6388 0 
89 2 22.1532 -27.6258 0 
91 2 23.2771 -27.6136 0 
93 2 24.4012 -27.6022 0 
95 2 25.5256 -27.5914 0 
97 2 26.6503 -27.5812 0 
99 2 27.7752 -27.5717 0 
101 2 -27.378 -27.0533 0 
103 2 -26.2487 -27.0183 0 
102 2 -26.833 -26.0633 0 
105 2 -25.1194 -26.9828 0 
104 2 -25.7037 -26.0278 0 
107 2 -23.9901 -26.9468 0 
106 2 -24.5742 -25.9918 0 
109 2 -22.8607 -26.9102 0 
108 1 -23.4446 -25.9552 0 
111 2 -21.7314 -26.8732 0 
113 2 -20.6021 -26.8357 0 
115 2 -19.4729 -26.7977 0 
117 2 -18.3437 -26.7591 0 
119 2 -17.2147 -26.7202 0 
121 2 -16.0858 -26.6808 0 
123 2 -14.9572 -26.641 0 
125 2 -13.8287 -26.6009 0 
127 2 -12.7006 -26.5605 0 
129 2 -11.5727 -26.5198 0 
131 2 -10.4452 -26.479 0 
133 2 -9.31813 -26.4382 0 
135 2 -8.19146 -26.3973 0 
137 2 -7.06526 -26.3566 0 
139 2 -5.93954 -26.3162 0 
141 2 -4.81433 -26.2762 0 
143 2 -3.68963 -26.2366 0 
145 2 -2.56545 -26.1977 0 
147 2 -1.44177 -26.1596 0 
50 2 0.258046 -27.0909 0 
149 2 -0.318563 -26.1224 0 
52 2 1.38059 -27.056 0 
151 2 0.804196 -26.0862 0 
54 2 2.50279 -27.0222 0 
153 2 1.92656 -26.0512 0 
56 2 3.62468 -26.9896 0 
155 2 3.04857 -26.0174 0 
58 2 4.74633 -26.9582 0 
157 2 4.1703 -25.9849 0 
60 2 5.86779 -26.9282 0 
159 2 5.2918 -25.9538 0 
62 2 6.98913 -26.8996 0 
64 2 8.11041 -26.8723 0 
66 2 9.23169 -26.8465 0 
68 2 10.353 -26.822 0 
70 2 11.4745 -26.7989 0 
72 2 12.596 -26.7771 0 
74 2 13.7178 -26.7566 0 
76 2 14.8398 -26.7373 0 
78 2 15.962 -26.7192 0 
80 2 17.0845 -26.7023 0 
82 2 18.2073 -26.6863 0 
84 2 19.3304 -26.6714 0 
86 2 20.4538 -26.6575 0 
88 2 21.5774 -26.6444 0 
90 2 22.7014 -26.6321 0 
92 2 23.8256 -26.6206 0 
94 2 24.9501 -26.6098 0 
96 2 26.0749 -26.5996 0 
98 2 27.2 -26.5901 0 
100 2 28.3253 -26.5811 0 
201 2 -27.4179 -25.1085 0 
203 2 -26.2885 -25.0731 0 
205 2 -25.159 -25.0372 0 
207 2 -24.0295 -25.0007 0 
209 1 -22.8992 -24.9634 0 
110 1 -22.3146 -25.9178 0 
211 1 -21.7692 -24.9247 0 
112 1 -21.1851 -25.8798 0 
213 1 -20.6395 -24.8858 0 
114 1 -20.0558 -25.8415 0 
215 1 -19.51 -24.8469 0 
116 1 -18.9263 -25.8026 0 
217 1 -18.381 -24.8063 0 
118 1 -17.7975 -25.7628 0 
120 1 -16.6685 -25.7233 0 
122 1 -15.5396 -25.6833 0 
124 1 -14.4111 -25.6426 0 
126 1 -13.2828 -25.6018 0 
128 1 -12.1548 -25.5605 0 
130 1 -11.0272 -25.5191 0 
132 1 -9.8999 -25.4773 0 
134 1 -8.77341 -25.4357 0 
136 1 -7.64736 -25.3943 0 
138 1 -6.52154 -25.3529 0 
140 1 -5.39623 -25.3118 0 
142 1 -4.27129 -25.2717 0 
144 1 -3.14707 -25.2316 0 
146 1 -2.02333 -25.1924 0 
148 1 -0.899677 -25.1543 0 
150 1 0.22336 -25.1169 0 
152 1 1.34584 -25.081 0 
154 1 2.46802 -25.0462 0 
156 1 3.59001 -25.0128 0 
158 1 4.71183 -24.9807 0 
160 1 5.83336 -24.9503 0 
161 2 6.41316 -25.9242 0 
162 1 6.95479 -24.9216 0 
163 2 7.53443 -25.896 0 
164 1 8.07651 -24.8942 0 
165 2 8.65568 -25.8693 0 
167 2 9.77697 -25.844 0 
166 1 9.19815 -24.8682 0 
169 2 10.8984 -25.8202 0 
168 1 10.32 -24.8438 0 
171 2 12.0199 -25.7978 0 
170 1 11.4421 -24.8207 0 
173 2 13.1416 -25.7768 0 
175 2 14.2636 -25.7571 0 
177 2 15.3858 -25.7386 0 
179 2 16.5083 -25.7213 0 
181 2 17.6311 -25.7052 0 
183 2 18.7543 -25.6901 0 
185 2 19.8777 -25.6759 0 
187 2 21.0014 -25.6627 0 
189 2 22.1254 -25.6504 0 
191 2 23.2498 -25.6388 0 
193 2 24.3744 -25.628 0 
195 2 25.4993 -25.6179 0 
197 2 26.6245 -25.6084 0 
199 2 27.75 -25.5994 0 
202 2 -26.8739 -24.1187 0 
204 2 -25.7444 -24.0828 0 
206 2 -24.6148 -24.0464 0 
208 1 -23.4846 -24.0093 0 
210 1 -22.3543 -23.9703 0 
212 1 -21.2242 -23.9309 0 
214 1 -20.0943 -23.8916 0 
216 1 -18.9651 -23.8509 0 
219 1 -17.2519 -24.7664 0 
218 1 -17.8357 -23.8103 0 
221 1 -16.1229 -24.726 0 
220 1 -16.7067 -23.7694 0 
222 1 -15.5781 -23.7276 0 
223 1 -14.9943 -24.6848 0 
224 1 -14.4491 -23.6863 0 
225 1 -13.8656 -24.6437 0 
227 1 -12.7374 -24.6018 0 
229 1 -11.6097 -24.5596 0 
231 1 -10.4823 -24.5174 0 
233 1 -9.3555 -24.4747 0 
235 1 -8.22936 -24.4325 0 
237 1 -7.10341 -24.3905 0 
239 1 -5.97787 -24.3482 0 
241 1 -4.8529 -24.3073 0 
243 1 -3.72851 -24.2662 0 
245 1 -2.60441 -24.2255 0 
247 1 -1.48067 -24.1867 0 
249 1 -0.357518 -24.1483 0 
251 1 0.765241 -24.1111 0 
253 1 1.88777 -24.0753 0 
255 1 3.01001 -24.0408 0 
257 1 4.13185 -24.0079 0 
259 1 5.25374 -23.9767 0 
261 1 6.37558 -23.947 0 
263 1 7.49718 -23.9191 0 
265 1 8.61918 -23.8925 0 
267 1 9.74143 -23.8673 0 
269 1 10.8637 -23.8436 0 
271 1 11.9863 -23.8214 0 
172 1 12.5643 -24.7989 0 
273 1 13.1092 -23.8005 0 
174 1 13.6867 -24.7786 0 
275 1 14.2322 -23.7813 0 
176 1 14.8095 -24.7598 0 
277 1 15.3554 -23.7631 0 
178 1 15.9325 -24.7421 0 
279 1 16.4788 -23.7461 0 
180 1 17.0558 -24.7256 0 
281 1 17.6025 -23.7303 0 
182 1 18.1793 -24.7101 0 
283 1 18.7263 -23.7151 0 
184 1 19.3027 -24.6955 0 
285 1 19.8503 -23.7015 0 
186 1 20.4264 -24.682 0 
287 1 20.9747 -23.6885 0 
188 1 21.5503 -24.6695 0 
289 1 22.0991 -23.6768 0 
190 1 22.6745 -24.6579 0 
291 1 23.2236 -23.6652 0 
192 1 23.7991 -24.6466 0 
293 1 24.3484 -23.6545 0 
194 1 24.924 -24.6363 0 
295 2 25.4729 -23.6443 0 
196 2 26.0488 -24.6264 0 
198 2 27.1745 -24.6176 0 
200 2 28.3003 -24.6093 0 
301 2 -27.4598 -23.1644 0 
303 2 -26.3303 -23.1287 0 
305 2 -25.2007 -23.0924 0 
307 2 -24.071 -23.0555 0 
309 1 -22.9404 -23.0168 0 
311 1 -21.8098 -22.9768 0 
313 1 -20.6795 -22.937 0 
315 1 -19.55 -22.8959 0 
317 1 -18.4205 -22.8551 0 
319 1 -17.2911 -22.8138 0 
321 1 -16.1622 -22.7714 0 
323 1 -15.0332 -22.7295 0 
226 1 -13.3205 -23.644 0 
325 1 -13.9046 -22.6869 0 
327 1 -12.7764 -22.6435 0 
228 1 -12.1926 -23.601 0 
329 1 -11.6484 -22.5997 0 
230 1 -11.0651 -23.5582 0 
331 1 -10.5212 -22.5556 0 
232 1 -9.9381 -23.5148 0 
333 1 -9.39403 -22.5113 0 
234 1 -8.81161 -23.4714 0 
236 1 -7.6855 -23.4287 0 
238 1 -6.55979 -23.3856 0 
240 1 -5.43443 -23.3429 0 
242 1 -4.31029 -23.3014 0 
244 1 -3.18623 -23.2599 0 
246 1 -2.06211 -23.2193 0 
248 1 -0.938718 -23.1801 0 
250 1 0.184 -23.1418 0 
252 1 1.30652 -23.105 0 
254 1 2.42905 -23.0694 0 
256 1 3.5516 -23.0353 0 
258 1 4.67384 -23.0032 0 
260 1 5.79616 -22.9726 0 
262 1 6.91848 -22.9436 0 
264 1 8.04061 -22.9166 0 
266 1 9.1629 -22.8909 0 
268 1 10.2855 -22.8665 0 
270 1 11.4082 -22.844 0 
272 1 12.5312 -22.8226 0 
274 1 13.6544 -22.8027 0 
276 1 14.778 -22.7842 0 
278 1 15.9017 -22.7666 0 
280 1 17.0256 -22.7504 0 
282 1 18.1497 -22.7349 0 
284 1 19.274 -22.7207 0 
286 1 20.3984 -22.7076 0 
288 1 21.5229 -22.6953 0 
290 1 22.6473 -22.684 0 
292 1 23.7725 -22.673 0 
294 1 24.8975 -22.6624 0 
297 2 26.5987 -23.6355 0 
296 2 26.0228 -22.6533 0 
299 2 27.7248 -23.6273 0 
298 2 27.149 -22.6452 0 
300 2 28.2755 -22.6376 0 
302 2 -26.9167 -22.1747 0 
304 2 -25.7871 -22.1385 0 
306 2 -24.6574 -22.1018 0 
308 1 -23.5269 -22.0634 0 
310 1 -22.3965 -22.0239 0 
312 1 -21.2659 -21.9833 0 
314 1 -20.1362 -21.942 0 
316 1 -19.0061 -21.9005 0 
318 1 -17.8765 -21.859 0 
320 1 -16.7473 -21.8165 0 
322 1 -15.6179 -21.7737 0 
324 1 -14.4889 -21.7304 0 
326 1 -13.3603 -21.6866 0 
328 1 -12.232 -21.6423 0 
330 1 -11.1044 -21.5971 0 
332 1 -9.9769 -21.5523 0 
334 1 -8.85004 -21.5071 0 
335 1 -8.26748 -22.4673 0 
336 1 -7.72366 -21.4623 0 
337 1 -7.14164 -22.4236 0 
338 1 -6.59805 -21.4176 0 
339 1 -6.01615 -22.3799 0 
340 1 -5.47306 -21.3731 0 
341 1 -4.8912 -22.3367 0 
343 1 -3.76702 -22.2947 0 
345 1 -2.64339 -22.253 0 
347 1 -1.51997 -22.2122 0 
349 1 -0.396842 -22.173 0 
351 1 0.726229 -22.135 0 
353 1 1.84892 -22.0981 0 
355 1 2.97151 -22.0632 0 
357 1 4.094 -22.0298 0 
359 1 5.2164 -21.9984 0 
361 1 6.33897 -21.9686 0 
363 1 7.46142 -21.9406 0 
365 1 8.58371 -21.9143 0 
367 1 9.70644 -21.8896 0 
369 1 10.8295 -21.8662 0 
371 1 11.9526 -21.8445 0 
373 1 13.0759 -21.824 0 
375 1 14.1998 -21.8052 0 
377 1 15.324 -21.7872 0 
379 1 16.4484 -21.7706 0 
381 1 17.5726 -21.7549 0 
383 1 18.6969 -21.74 0 
385 1 19.8213 -21.7267 0 
387 1 20.946 -21.7141 0 
389 1 22.0709 -21.7023 0 
391 1 23.1961 -21.6917 0 
393 1 24.3214 -21.6807 0 
395 2 25.4466 -21.6709 0 
397 2 26.573 -21.6629 0 
399 2 27.6998 -21.6554 0 
401 2 -27.5037 -21.2208 0 
403 2 -26.3741 -21.1849 0 
402 2 -26.9617 -20.2313 0 
405 2 -25.2445 -21.1483 0 
404 2 -25.8321 -20.1949 0 
407 2 -24.1147 -21.111 0 
409 1 -22.9837 -21.0711 0 
411 1 -21.853 -21.0306 0 
413 1 -20.7228 -20.9886 0 
415 1 -19.5925 -20.9472 0 
417 1 -18.4624 -20.9048 0 
419 1 -17.3327 -20.862 0 
421 1 -16.2032 -20.8189 0 
423 1 -15.0739 -20.7749 0 
425 1 -13.9449 -20.7304 0 
427 1 -12.8162 -20.6855 0 
429 1 -11.6883 -20.6398 0 
431 1 -10.5603 -20.5941 0 
433 1 -9.43309 -20.5481 0 
435 1 -8.30641 -20.5023 0 
437 1 -7.18034 -20.4562 0 
439 1 -6.055 -20.4104 0 
342 1 -4.34838 -21.3298 0 
441 1 -4.92991 -20.3656 0 
344 1 -3.22455 -21.2871 0 
443 1 -3.80572 -20.3214 0 
346 1 -2.10138 -21.245 0 
445 1 -2.68227 -20.2781 0 
348 1 -0.978222 -21.2044 0 
447 1 -1.55883 -20.2363 0 
350 1 0.144897 -21.1656 0 
352 1 1.26793 -21.1274 0 
354 1 2.39071 -21.0913 0 
356 1 3.51325 -21.057 0 
358 1 4.63605 -21.0244 0 
360 1 5.75882 -20.9938 0 
362 1 6.88155 -20.9647 0 
364 1 8.0041 -20.9377 0 
366 1 9.12703 -20.9126 0 
368 1 10.2504 -20.8884 0 
370 1 11.3739 -20.8663 0 
372 1 12.4976 -20.8453 0 
374 1 13.6215 -20.8261 0 
376 1 14.7458 -20.8079 0 
378 1 15.8704 -20.7908 0 
380 1 16.9949 -20.7746 0 
382 1 18.1195 -20.7596 0 
384 1 19.2442 -20.7458 0 
386 1 20.3691 -20.7333 0 
388 1 21.4943 -20.7212 0 
390 1 22.6198 -20.7099 0 
392 1 23.7452 -20.6992 0 
394 1 24.8709 -20.6891 0 
396 2 25.9969 -20.6804 0 
398 2 27.1238 -20.673 0 
400 2 28.251 -20.6661 0 
501 2 -27.5497 -19.2779 0 
503 2 -26.4202 -19.2417 0 
505 2 -25.2906 -19.2049 0 
406 2 -24.7023 -20.1579 0 
507 2 -24.1608 -19.1673 0 
408 1 -23.5716 -20.1189 0 
509 1 -23.0297 -19.1264 0 
410 1 -22.4408 -20.0783 0 
511 1 -21.899 -19.0844 0 
412 1 -21.3102 -20.0362 0 
513 1 -20.7679 -19.0421 0 
414 1 -20.1795 -19.9942 0 
416 1 -19.0495 -19.9517 0 
418 1 -17.9195 -19.9083 0 
420 1 -16.7893 -19.8647 0 
422 1 -15.6597 -19.8202 0 
424 1 -14.5304 -19.7753 0 
426 1 -13.4013 -19.7298 0 
428 1 -12.2731 -19.6834 0 
430 1 -11.1447 -19.6371 0 
432 1 -10.0168 -19.5903 0 
434 1 -8.88956 -19.5433 0 
436 1 -7.7631 -19.4961 0 
438 1 -6.63724 -19.4488 0 
440 1 -5.51189 -19.4027 0 
442 1 -4.38729 -19.3567 0 
444 1 -3.26348 -19.3119 0 
446 1 -2.1399 -19.269 0 
448 1 -1.01644 -19.2273 0 
449 1 -0.435567 -20.196 0 
450 1 0.106757 -19.1867 0 
451 1 0.687235 -20.1571 0 
452 1 1.22955 -19.1482 0 
453 1 1.80997 -20.1196 0 
454 1 2.35228 -19.112 0 
455 1 2.93256 -20.0844 0 
456 1 3.47493 -19.0774 0 
457 1 4.05525 -20.0509 0 
459 1 5.17815 -20.019 0 
461 1 6.30098 -19.9891 0 
463 1 7.42393 -19.9609 0 
465 1 8.54734 -19.9354 0 
467 1 9.67084 -19.911 0 
469 1 10.7946 -19.8878 0 
471 1 11.9184 -19.8667 0 
473 1 13.0425 -19.8468 0 
475 1 14.167 -19.8286 0 
477 1 15.2917 -19.8111 0 
479 1 16.4164 -19.7942 0 
481 1 17.5415 -19.7791 0 
483 1 18.6666 -19.7651 0 
485 1 19.7919 -19.7523 0 
487 1 20.9173 -19.7401 0 
489 1 22.0429 -19.7287 0 
491 1 23.1687 -19.7177 0 
493 1 24.2946 -19.7074 0 
495 2 25.4205 -19.6978 0 
497 2 26.5477 -19.6905 0 
499 2 27.6751 -19.6838 0 
502 2 -27.0088 -18.2886 0 
504 2 -25.8793 -18.252 0 
506 2 -24.7497 -18.2147 0 
508 1 -23.6191 -18.1752 0 
510 1 -22.488 -18.1331 0 
512 1 -21.357 -18.0906 0 
514 1 -20.2262 -18.0474 0 
515 1 -19.6373 -18.999 0 
516 1 -19.0955 -18.0036 0 
517 1 -18.5069 -18.9555 0 
518 1 -17.9646 -17.9593 0 
519 1 -17.3765 -18.9116 0 
520 1 -16.8342 -17.9141 0 
521 1 -16.2464 -18.8665 0 
523 1 -15.1167 -18.8211 0 
525 1 -13.9872 -18.7751 0 
527 1 -12.8583 -18.7278 0 
529 1 -11.7298 -18.681 0 
531 1 -10.6018 -18.6333 0 
533 1 -9.47411 -18.5853 0 
535 1 -8.34692 -18.5371 0 
537 1 -7.22058 -18.4887 0 
539 1 -6.09483 -18.4408 0 
541 1 -4.97004 -18.3934 0 
543 1 -3.84581 -18.347 0 
545 1 -2.7219 -18.3025 0 
547 1 -1.59849 -18.2591 0 
549 1 -0.47535 -18.2174 0 
551 1 0.647837 -18.1772 0 
553 1 1.7707 -18.1396 0 
555 1 2.89353 -18.1042 0 
557 1 4.01635 -18.0701 0 
458 1 4.59754 -19.0444 0 
559 1 5.13958 -18.0381 0 
460 1 5.72042 -19.0136 0 
561 1 6.26316 -18.0085 0 
462 1 6.84364 -18.9846 0 
563 1 7.3869 -17.9809 0 
464 1 7.96725 -18.9582 0 
565 1 8.51067 -17.9555 0 
466 1 9.09094 -18.9334 0 
567 1 9.63447 -17.9315 0 
468 1 10.2146 -18.9096 0 
569 1 10.7589 -17.909 0 
470 1 11.3387 -18.8877 0 
472 1 12.4631 -18.8675 0 
474 1 13.5878 -18.8488 0 
476 1 14.7126 -18.8313 0 
478 1 15.8377 -18.8143 0 
480 1 16.9632 -18.7985 0 
482 1 18.0885 -18.7842 0 
484 1 19.2141 -18.7712 0 
486 1 20.34 -18.7589 0 
488 1 21.4658 -18.7472 0 
490 1 22.5918 -18.7361 0 
492 1 23.7182 -18.7258 0 
494 1 24.8447 -18.7162 0 
496 2 25.9714 -18.7078 0 
498 2 27.0991 -18.7012 0 
500 2 28.2271 -18.6951 0 
601 2 -27.5979 -17.3354 0 
603 2 -26.4686 -17.2992 0 
605 2 -25.3391 -17.2621 0 
607 2 -24.2094 -17.2244 0 
609 1 -23.0783 -17.1825 0 
611 1 -21.9471 -17.1397 0 
613 1 -20.8159 -17.0964 0 
615 1 -19.685 -17.0524 0 
617 1 -18.554 -17.0079 0 
619 1 -17.4232 -16.9623 0 
522 1 -15.7039 -17.8678 0 
621 1 -16.2926 -16.9161 0 
524 1 -14.5742 -17.8213 0 
623 1 -15.162 -16.8686 0 
526 1 -13.445 -17.7737 0 
625 1 -14.0321 -16.8205 0 
528 1 -12.3159 -17.7258 0 
627 1 -12.9025 -16.7721 0 
530 1 -11.1874 -17.6773 0 
532 1 -10.0592 -17.6282 0 
534 1 -8.9314 -17.5794 0 
536 1 -7.80435 -17.5297 0 
538 1 -6.67814 -17.4804 0 
540 1 -5.55271 -17.4314 0 
542 1 -4.42774 -17.3832 0 
544 1 -3.30339 -17.3369 0 
546 1 -2.18003 -17.2916 0 
548 1 -1.05713 -17.2482 0 
550 1 0.0657916 -17.207 0 
552 1 1.18892 -17.1675 0 
554 1 2.31207 -17.1307 0 
556 1 3.43491 -17.0958 0 
558 1 4.55802 -17.0631 0 
560 1 5.68167 -17.0326 0 
562 1 6.80552 -17.0039 0 
564 1 7.92958 -16.9776 0 
566 1 9.05393 -16.9529 0 
568 1 10.1785 -16.9304 0 
571 1 11.8834 -17.888 0 
570 1 11.3032 -16.9085 0 
573 1 13.0084 -17.869 0 
572 1 12.4283 -16.8893 0 
575 1 14.1335 -17.8512 0 
574 1 13.5538 -16.871 0 
577 1 15.2587 -17.8342 0 
576 1 14.6794 -16.8537 0 
579 1 16.3843 -17.8182 0 
578 1 15.8052 -16.8374 0 
581 1 17.5101 -17.8032 0 
580 1 16.9312 -16.8225 0 
583 1 18.6359 -17.7899 0 
582 1 18.0574 -16.8086 0 
585 1 19.7622 -17.7778 0 
584 1 19.184 -16.7963 0 
587 1 20.8884 -17.7657 0 
586 1 20.3106 -16.7844 0 
589 1 22.0148 -17.7546 0 
588 1 21.4375 -16.7732 0 
591 1 23.1413 -17.7442 0 
590 1 22.5645 -16.7627 0 
593 1 24.2682 -17.7344 0 
592 1 23.6916 -16.7528 0 
595 2 25.3948 -17.725 0 
594 1 24.8187 -16.7433 0 
596 2 25.9465 -16.7357 0 
597 2 26.5229 -17.7186 0 
598 2 27.0751 -16.7299 0 
599 2 27.6512 -17.7126 0 
600 2 28.2039 -16.7246 0 
602 2 -27.0583 -16.3463 0 
604 2 -25.929 -16.3096 0 
606 2 -24.7995 -16.2721 0 
608 1 -23.6688 -16.232 0 
610 1 -22.538 -16.1894 0 
612 1 -21.4068 -16.1461 0 
614 1 -20.2757 -16.1017 0 
616 1 -19.1445 -16.0571 0 
618 1 -18.0134 -16.0112 0 
620 1 -16.8822 -15.9649 0 
622 1 -15.7511 -15.9174 0 
624 1 -14.6204 -15.8685 0 
626 1 -13.49 -15.8192 0 
628 1 -12.3605 -15.7695 0 
629 1 -11.7732 -16.7226 0 
630 1 -11.2315 -15.7184 0 
631 1 -10.6446 -16.6725 0 
632 1 -10.1025 -15.6676 0 
633 1 -9.51617 -16.6228 0 
634 1 -8.97458 -15.6157 0 
635 1 -8.38873 -16.5721 0 
637 1 -7.26224 -16.521 0 
639 1 -6.13651 -16.4705 0 
641 1 -5.01136 -16.421 0 
643 1 -3.88648 -16.3726 0 
645 1 -2.7627 -16.3251 0 
647 1 -1.63934 -16.2798 0 
649 1 -0.51624 -16.237 0 
651 1 0.60655 -16.196 0 
653 1 1.72963 -16.1577 0 
655 1 2.85285 -16.1215 0 
657 1 3.97619 -16.0876 0 
659 1 5.09994 -16.0564 0 
661 1 6.22388 -16.0272 0 
663 1 7.34825 -15.9998 0 
665 1 8.47277 -15.9744 0 
667 1 9.59774 -15.951 0 
669 1 10.7228 -15.9293 0 
671 1 11.8484 -15.9091 0 
673 1 12.9739 -15.891 0 
675 1 14.0997 -15.8733 0 
677 1 15.2259 -15.8567 0 
679 1 16.3524 -15.8414 0 
681 1 17.4789 -15.8273 0 
683 1 18.6058 -15.8147 0 
685 1 19.733 -15.8028 0 
687 1 20.8603 -15.7918 0 
689 1 21.9877 -15.7812 0 
691 1 23.1151 -15.7713 0 
693 1 24.2424 -15.7617 0 
695 2 25.3699 -15.7527 0 
697 2 26.4989 -15.7471 0 
699 2 27.6281 -15.742 0 
701 2 -27.6483 -15.3934 0 
703 2 -26.5193 -15.357 0 
705 2 -25.3901 -15.3199 0 
707 2 -24.2607 -15.282 0 
709 1 -23.1295 -15.2394 0 
711 1 -21.9984 -15.1962 0 
713 1 -20.8673 -15.1519 0 
715 1 -19.7359 -15.1071 0 
717 1 -18.6046 -15.0614 0 
719 1 -17.4731 -15.0146 0 
721 1 -16.3417 -14.967 0 
723 1 -15.2106 -14.918 0 
725 1 -14.0795 -14.868 0 
727 1 -12.9491 -14.8173 0 
729 1 -11.8194 -14.7656 0 
731 1 -10.6898 -14.7137 0 
733 1 -9.56127 -14.6605 0 
636 1 -7.84747 -15.5632 0 
735 1 -8.4335 -14.6067 0 
638 1 -6.72084 -15.511 0 
737 1 -7.30638 -14.5531 0 
640 1 -5.59511 -15.4594 0 
739 1 -6.18008 -14.4995 0 
642 1 -4.47017 -15.4093 0 
644 1 -3.34603 -15.3599 0 
646 1 -2.2223 -15.3125 0 
648 1 -1.09909 -15.2675 0 
650 1 0.0237044 -15.2248 0 
652 1 1.14677 -15.1848 0 
654 1 2.27009 -15.1475 0 
656 1 3.39357 -15.1125 0 
658 1 4.51755 -15.0803 0 
660 1 5.64166 -15.0499 0 
662 1 6.7661 -15.022 0 
664 1 7.89111 -14.996 0 
666 1 9.01651 -14.972 0 
668 1 10.1419 -14.9496 0 
670 1 11.2677 -14.9292 0 
672 1 12.3937 -14.9103 0 
674 1 13.5195 -14.8927 0 
676 1 14.6458 -14.876 0 
678 1 15.7727 -14.8605 0 
680 1 16.8997 -14.846 0 
682 1 18.027 -14.8331 0 
684 1 19.1548 -14.8213 0 
686 1 20.2825 -14.8102 0 
688 1 21.4102 -14.7998 0 
690 1 22.5381 -14.7896 0 
692 1 23.666 -14.7802 0 
694 1 24.7941 -14.7712 0 
696 2 25.9226 -14.7642 0 
698 2 27.0521 -14.7592 0 
700 2 28.1818 -14.7547 0 
702 2 -27.11 -14.4044 0 
801 2 -27.7009 -13.4516 0 
704 2 -25.9811 -14.3676 0 
803 2 -26.5724 -13.4152 0 
706 2 -24.852 -14.3301 0 
805 2 -25.4437 -13.3781 0 
708 1 -23.7213 -14.2895 0 
807 2 -24.3146 -13.3401 0 
710 1 -22.5903 -14.2465 0 
809 1 -23.1835 -13.2972 0 
712 1 -21.4592 -14.2025 0 
714 1 -20.328 -14.1579 0 
716 1 -19.1967 -14.1122 0 
718 1 -18.0651 -14.0655 0 
720 1 -16.9334 -14.0177 0 
722 1 -15.8019 -13.9684 0 
724 1 -14.6707 -13.9183 0 
726 1 -13.5397 -13.8667 0 
728 1 -12.4091 -13.8143 0 
730 1 -11.279 -13.7612 0 
732 1 -10.1495 -13.707 0 
734 1 -9.02083 -13.6522 0 
736 1 -7.893 -13.5966 0 
738 1 -6.76634 -13.5414 0 
740 1 -5.64058 -13.4867 0 
741 1 -5.05462 -14.4471 0 
742 1 -4.51551 -13.433 0 
743 1 -3.93013 -14.3957 0 
744 1 -3.3908 -13.3813 0 
745 1 -2.80611 -14.3463 0 
746 1 -2.26698 -13.3316 0 
747 1 -1.68253 -14.2991 0 
749 1 -0.559315 -14.2542 0 
751 1 0.563613 -14.2124 0 
753 1 1.68692 -14.1736 0 
755 1 2.8105 -14.1373 0 
757 1 3.9345 -14.1042 0 
759 1 5.05884 -14.0729 0 
761 1 6.18372 -14.0439 0 
763 1 7.30895 -14.0175 0 
765 1 8.43445 -13.9929 0 
767 1 9.56022 -13.9699 0 
769 1 10.6864 -13.9492 0 
771 1 11.8127 -13.9295 0 
773 1 12.9393 -13.9115 0 
775 1 14.066 -13.8948 0 
777 1 15.1931 -13.8794 0 
779 1 16.3206 -13.8649 0 
781 1 17.4483 -13.8516 0 
783 1 18.5763 -13.8399 0 
785 1 19.7044 -13.8286 0 
787 1 20.8328 -13.818 0 
789 1 21.961 -13.8081 0 
791 1 23.0892 -13.7985 0 
793 1 24.2176 -13.7897 0 
795 2 25.3462 -13.7811 0 
797 2 26.4761 -13.7764 0 
799 2 27.6062 -13.772 0 
802 2 -27.164 -12.4626 0 
804 2 -26.0357 -12.4259 0 
806 2 -24.9071 -12.3884 0 
808 1 -23.777 -12.3479 0 
810 1 -22.6464 -12.3046 0 
811 1 -22.0522 -13.2534 0 
812 1 -21.5153 -12.2602 0 
813 1 -20.9209 -13.2089 0 
814 1 -20.3837 -12.2151 0 
815 1 -19.7894 -13.1633 0 
816 1 -19.2521 -12.1686 0 
817 1 -18.6579 -13.1167 0 
818 1 -18.1202 -12.121 0 
819 1 -17.5263 -13.0691 0 
821 1 -16.3947 -13.02 0 
823 1 -15.2629 -12.9695 0 
825 1 -14.1314 -12.9175 0 
827 1 -13.0002 -12.8646 0 
829 1 -11.8695 -12.8104 0 
831 1 -10.7394 -12.7553 0 
833 1 -9.60961 -12.6993 0 
835 1 -8.48115 -12.6424 0 
837 1 -7.35343 -12.585 0 
839 1 -6.22688 -12.5279 0 
841 1 -5.10134 -12.4719 0 
843 1 -3.97617 -12.4178 0 
845 1 -2.85206 -12.3651 0 
748 1 -1.14356 -13.2846 0 
847 1 -1.72859 -12.3154 0 
849 1 -0.605272 -12.2693 0 
750 1 -0.0201176 -13.2403 0 
851 1 0.518621 -12.2266 0 
752 1 1.10333 -13.1999 0 
853 1 1.64262 -12.1871 0 
754 1 2.22688 -13.1622 0 
756 1 3.35115 -13.1277 0 
758 1 4.47554 -13.0958 0 
760 1 5.60042 -13.0661 0 
762 1 6.72582 -13.0388 0 
764 1 7.8517 -13.0135 0 
766 1 8.97808 -12.9902 0 
768 1 10.1047 -12.9689 0 
770 1 11.2312 -12.9491 0 
772 1 12.3584 -12.9305 0 
774 1 13.4858 -12.9133 0 
776 1 14.6136 -12.8977 0 
778 1 15.7416 -12.8835 0 
780 1 16.8697 -12.8703 0 
782 1 17.9981 -12.8581 0 
784 1 19.1264 -12.847 0 
786 1 20.2552 -12.8364 0 
788 1 21.3841 -12.8265 0 
790 1 22.5128 -12.8169 0 
792 1 23.6414 -12.8079 0 
794 1 24.7705 -12.7998 0 
796 2 25.9 -12.7934 0 
798 2 27.0306 -12.7893 0 
800 2 28.1612 -12.7854 0 
901 2 -27.7557 -11.5099 0 
903 2 -26.6279 -11.4735 0 
905 2 -25.4997 -11.4364 0 
907 2 -24.3713 -11.3985 0 
909 1 -23.2408 -11.3558 0 
911 1 -22.1101 -11.3119 0 
913 1 -20.979 -11.2673 0 
915 1 -19.8476 -11.2212 0 
917 1 -18.7161 -11.1741 0 
820 1 -16.9884 -12.072 0 
919 1 -17.584 -11.1252 0 
822 1 -15.8568 -12.0221 0 
921 1 -16.4518 -11.0749 0 
824 1 -14.7248 -11.9698 0 
923 1 -15.3198 -11.0235 0 
826 1 -13.5929 -11.9163 0 
828 1 -12.4615 -11.8615 0 
830 1 -11.3307 -11.8052 0 
832 1 -10.2003 -11.7483 0 
834 1 -9.0707 -11.6898 0 
836 1 -7.94239 -11.6309 0 
838 1 -6.81483 -11.5714 0 
840 1 -5.68826 -11.5127 0 
842 1 -4.56256 -11.4559 0 
844 1 -3.43814 -11.4 0 
846 1 -2.31428 -11.3474 0 
848 1 -1.19047 -11.2988 0 
850 1 -0.0667518 -11.2539 0 
852 1 1.05721 -11.2125 0 
855 1 2.7668 -12.1512 0 
854 1 2.18168 -11.1749 0 
857 1 3.89133 -12.1183 0 
856 1 3.30649 -11.1407 0 
859 1 5.01636 -12.0879 0 
858 1 4.43203 -11.1096 0 
861 1 6.14197 -12.0601 0 
860 1 5.55807 -11.081 0 
863 1 7.26833 -12.0344 0 
862 1 6.68443 -11.0551 0 
865 1 8.39504 -12.0103 0 
864 1 7.81133 -11.0303 0 
867 1 9.52228 -11.9884 0 
869 1 10.6496 -11.9682 0 
871 1 11.777 -11.9496 0 
873 1 12.9049 -11.9322 0 
875 1 14.0336 -11.9162 0 
877 1 15.1622 -11.9017 0 
879 1 16.2908 -11.8885 0 
881 1 17.4195 -11.8763 0 
883 1 18.5484 -11.8648 0 
885 1 19.6776 -11.8546 0 
887 1 20.8069 -11.8447 0 
889 1 21.9363 -11.8355 0 
891 1 23.0655 -11.8263 0 
893 1 24.1948 -11.8181 0 
895 2 25.3239 -11.8103 0 
897 2 26.4549 -11.8064 0 
899 2 27.586 -11.8028 0 
902 2 -27.2202 -10.5209 0 
904 2 -26.0925 -10.4842 0 
906 2 -24.9646 -10.4468 0 
908 1 -23.8352 -10.4065 0 
910 1 -22.7051 -10.3637 0 
912 1 -21.5746 -10.3194 0 
914 1 -20.4436 -10.2742 0 
916 1 -19.312 -10.2271 0 
918 1 -18.1807 -10.1791 0 
920 1 -17.0486 -10.1292 0 
922 1 -15.9163 -10.0775 0 
924 1 -14.7841 -10.0239 0 
925 1 -14.1878 -10.9696 0 
926 1 -13.6516 -9.96855 0 
927 1 -13.0558 -10.9144 0 
928 1 -12.5195 -9.91106 0 
929 1 -11.9243 -10.8572 0 
930 1 -11.3874 -9.85209 0 
931 1 -10.7928 -10.7992 0 
933 1 -9.66233 -10.7394 0 
935 1 -8.53298 -10.6784 0 
937 1 -7.40457 -10.6174 0 
939 1 -6.2769 -10.5559 0 
941 1 -5.15015 -10.4958 0 
943 1 -4.02511 -10.4366 0 
945 1 -2.90087 -10.381 0 
947 1 -1.77683 -10.3293 0 
949 1 -0.653122 -10.2815 0 
951 1 0.470817 -10.2378 0 
953 1 1.59526 -10.1988 0 
955 1 2.72056 -10.1633 0 
957 1 3.84649 -10.1311 0 
959 1 4.97276 -10.1015 0 
961 1 6.0997 -10.0749 0 
963 1 7.22712 -10.0504 0 
965 1 8.35558 -10.0276 0 
866 1 8.93898 -11.008 0 
967 1 9.48425 -10.0067 0 
868 1 10.067 -10.9874 0 
969 1 10.6134 -9.98748 0 
870 1 11.1954 -10.9684 0 
971 1 11.7429 -9.96977 0 
872 1 12.3241 -10.9511 0 
973 1 12.8728 -9.95379 0 
874 1 13.4533 -10.9353 0 
975 1 14.0025 -9.93854 0 
876 1 14.5825 -10.9201 0 
977 1 15.1326 -9.92485 0 
878 1 15.7118 -10.9067 0 
979 1 16.2625 -9.9121 0 
880 1 16.8412 -10.894 0 
981 1 17.3925 -9.90054 0 
882 1 17.9707 -10.8828 0 
983 1 18.5226 -9.89006 0 
884 1 19.1004 -10.8724 0 
985 1 19.6529 -9.88034 0 
886 1 20.23 -10.8627 0 
987 1 20.7832 -9.8712 0 
888 1 21.3596 -10.8535 0 
890 1 22.4892 -10.8449 0 
989 1 21.9134 -9.8629 0 
892 1 23.6191 -10.8366 0 
991 1 23.0434 -9.85502 0 
894 1 24.7492 -10.829 0 
993 1 24.1736 -9.84758 0 
896 2 25.8793 -10.8234 0 
995 2 25.3037 -9.84035 0 
898 2 27.0108 -10.8201 0 
997 2 26.4357 -9.83726 0 
900 2 28.1423 -10.817 0 
999 2 27.5677 -9.8344 0 
1001 2 -27.8125 -9.56805 0 
1003 2 -26.6854 -9.5318 0 
1005 2 -25.5581 -9.49477 0 
1007 2 -24.4305 -9.45693 0 
1009 1 -23.3007 -9.41471 0 
1011 1 -22.1708 -9.37119 0 
1013 1 -21.0403 -9.3268 0 
1015 1 -19.9094 -9.28073 0 
1017 1 -18.778 -9.23277 0 
1019 1 -17.6465 -9.18389 0 
1021 1 -16.5144 -9.13255 0 
1023 1 -15.3821 -9.07901 0 
1025 1 -14.2496 -9.02392 0 
1027 1 -13.117 -8.96651 0 
1029 1 -11.9846 -8.90718 0 
932 1 -10.2563 -9.79113 0 
1031 1 -10.8524 -8.84517 0 
934 1 -9.12559 -9.72857 0 
1033 1 -9.72066 -8.78159 0 
936 1 -7.99565 -9.66549 0 
1035 1 -8.58952 -8.71656 0 
938 1 -6.86728 -9.60161 0 
940 1 -5.73987 -9.53824 0 
942 1 -4.61418 -9.47573 0 
944 1 -3.48928 -9.41603 0 
946 1 -2.36514 -9.36086 0 
948 1 -1.24118 -9.30971 0 
950 1 -0.116874 -9.26351 0 
952 1 1.00828 -9.22257 0 
954 1 2.13388 -9.18572 0 
956 1 3.25985 -9.15236 0 
958 1 4.38673 -9.12221 0 
960 1 5.5146 -9.0948 0 
962 1 6.64282 -9.06977 0 
964 1 7.7718 -9.04711 0 
966 1 8.9013 -9.02587 0 
968 1 10.0311 -9.00652 0 
970 1 11.1611 -8.98856 0 
972 1 12.2914 -8.97212 0 
974 1 13.422 -8.95679 0 
976 1 14.5528 -8.94287 0 
978 1 15.6835 -8.92991 0 
980 1 16.8143 -8.91845 0 
982 1 17.9451 -8.90755 0 
984 1 19.0761 -8.89794 0 
986 1 20.2068 -8.8888 0 
988 1 21.3376 -8.88067 0 
990 1 22.4682 -8.87293 0 
992 1 23.5988 -8.86575 0 
994 1 24.7296 -8.85905 0 
996 2 25.8608 -8.85435 0 
998 2 26.9933 -8.85174 0 
1000 2 28.1257 -8.84931 0 
1002 2 -27.2783 -8.57905 0 
1101 2 -27.8711 -7.62598 0 
1004 2 -26.1516 -8.54247 0 
1103 2 -26.7449 -7.58983 0 
1006 2 -25.0246 -8.50509 0 
1105 2 -25.6186 -7.5529 0 
1008 1 -23.8963 -8.4653 0 
1107 2 -24.492 -7.51516 0 
1010 1 -22.7674 -8.42266 0 
1012 1 -21.6375 -8.37897 0 
1014 1 -20.5073 -8.33389 0 
1016 1 -19.3767 -8.28716 0 
1018 1 -18.2455 -8.23831 0 
1020 1 -17.1142 -8.18812 0 
1022 1 -15.9823 -8.13526 0 
1024 1 -14.8497 -8.08046 0 
1026 1 -13.7168 -8.02344 0 
1028 1 -12.584 -7.96394 0 
1030 1 -11.4511 -7.9019 0 
1032 1 -10.3184 -7.8372 0 
1034 1 -9.18607 -7.77061 0 
1036 1 -8.05492 -7.70176 0 
1037 1 -7.45968 -8.64989 0 
1038 1 -6.92488 -7.63194 0 
1039 1 -6.33122 -8.58351 0 
1041 1 -5.20452 -8.51719 0 
1043 1 -4.07903 -8.45344 0 
1045 1 -2.9543 -8.39367 0 
1047 1 -1.83025 -8.33879 0 
1049 1 -0.705809 -8.28962 0 
1051 1 0.419413 -8.24663 0 
1053 1 1.54535 -8.20819 0 
1055 1 2.67242 -8.17329 0 
1057 1 3.80015 -8.14274 0 
1059 1 4.92853 -8.11492 0 
1061 1 6.05761 -8.08908 0 
1063 1 7.18756 -8.06616 0 
1065 1 8.31781 -8.04468 0 
1067 1 9.44836 -8.02509 0 
1069 1 10.5791 -8.00722 0 
1071 1 11.7102 -7.99059 0 
1073 1 12.8414 -7.9751 0 
1075 1 13.9729 -7.96119 0 
1077 1 15.1044 -7.94806 0 
1079 1 16.2361 -7.93611 0 
1081 1 17.3675 -7.92528 0 
1083 1 18.4992 -7.91558 0 
1085 1 19.6306 -7.90628 0 
1087 1 20.7618 -7.89833 0 
1089 1 21.8929 -7.89094 0 
1091 1 23.0239 -7.88376 0 
1093 1 24.1551 -7.87748 0 
1095 2 25.2861 -7.87134 0 
1097 2 26.419 -7.86899 0 
1099 2 27.5519 -7.8668 0 
1102 2 -27.3381 -6.63684 0 
1104 2 -26.2124 -6.60035 0 
1106 2 -25.0865 -6.56307 0 
1108 1 -23.9596 -6.52357 0 
1109 1 -23.3638 -7.47347 0 
1110 1 -22.8321 -6.48188 0 
1111 1 -22.2352 -7.43097 0 
1112 1 -21.704 -6.43925 0 
1113 1 -21.1057 -7.38661 0 
1114 1 -20.5751 -6.39409 0 
1115 1 -19.976 -7.34093 0 
1116 1 -19.446 -6.34776 0 
1117 1 -18.8458 -7.29345 0 
1119 1 -17.7149 -7.24345 0 
1121 1 -16.5837 -7.19182 0 
1123 1 -15.4518 -7.13791 0 
1125 1 -14.3194 -7.08152 0 
1127 1 -13.1865 -7.02241 0 
1129 1 -12.0531 -6.96062 0 
1131 1 -10.9196 -6.89558 0 
1133 1 -9.78622 -6.82784 0 
1135 1 -8.65356 -6.75712 0 
1137 1 -7.52203 -6.68453 0 
1139 1 -6.39232 -6.61032 0 
1040 1 -5.79693 -7.56168 0 
1141 1 -5.26485 -6.5361 0 
1042 1 -4.67102 -7.49326 0 
1143 1 -4.13942 -6.46589 0 
1044 1 -3.54611 -7.42854 0 
1046 1 -2.42183 -7.36898 0 
1048 1 -1.29696 -7.31656 0 
1050 1 -0.171295 -7.27063 0 
1052 1 0.954896 -7.23048 0 
1054 1 2.08248 -7.1949 0 
1056 1 3.2113 -7.16292 0 
1058 1 4.3408 -7.13474 0 
1060 1 5.47095 -7.10847 0 
1062 1 6.60208 -7.08541 0 
1064 1 7.7333 -7.06344 0 
1066 1 8.86505 -7.04365 0 
1068 1 9.99685 -7.02569 0 
1070 1 11.1286 -7.00907 0 
1072 1 12.2607 -6.9935 0 
1074 1 13.3932 -6.97933 0 
1076 1 14.5254 -6.96623 0 
1078 1 15.6576 -6.95411 0 
1080 1 16.7898 -6.94288 0 
1082 1 17.922 -6.93317 0 
1084 1 19.0541 -6.92397 0 
1086 1 20.186 -6.91576 0 
1088 1 21.3176 -6.90851 0 
1090 1 22.4492 -6.9016 0 
1092 1 23.5811 -6.8956 0 
1094 1 24.713 -6.89 0 
1096 2 25.8451 -6.88616 0 
1098 2 26.9784 -6.88422 0 
1100 2 28.1116 -6.88241 0 
1201 2 -27.9311 -5.68349 0 
1203 2 -26.806 -5.64742 0 
1205 2 -25.6808 -5.61059 0 