ITEM: TIMESTEP
2900
ITEM: NUMBER OF ATOMS
2850
ITEM: BOX BOUNDS ff ff pp
-42.092 42.092
-42.092 42.092
-0.280613 0.280613
ITEM: ATOMS id type xu yu zu 
1 2 -27.3398 -28.9988 0 
3 2 -26.2107 -28.9642 0 
5 2 -25.0816 -28.9291 0 
7 2 -23.9525 -28.8936 0 
9 2 -22.8235 -28.8577 0 
11 2 -21.6944 -28.8213 0 
13 2 -20.5655 -28.7844 0 
15 2 -19.4366 -28.7472 0 
17 2 -18.3079 -28.7095 0 
19 2 -17.1793 -28.6715 0 
21 2 -16.0508 -28.6331 0 
23 2 -14.9226 -28.5944 0 
25 2 -13.7947 -28.5554 0 
27 2 -12.667 -28.5163 0 
29 2 -11.5396 -28.477 0 
31 2 -10.4126 -28.4376 0 
33 2 -9.28592 -28.3982 0 
35 2 -8.15967 -28.3589 0 
37 2 -7.03386 -28.3198 0 
39 2 -5.90848 -28.281 0 
2 2 -26.7941 -28.0086 0 
4 2 -25.6649 -27.9736 0 
6 2 -24.5357 -27.9381 0 
8 2 -23.4065 -27.902 0 
10 2 -22.2773 -27.8656 0 
12 2 -21.1481 -27.8286 0 
14 2 -20.019 -27.7912 0 
16 2 -18.89 -27.7533 0 
18 2 -17.7611 -27.715 0 
20 2 -16.6324 -27.6763 0 
22 2 -15.5039 -27.6373 0 
24 2 -14.3755 -27.5979 0 
26 2 -13.2475 -27.5582 0 
28 2 -12.1197 -27.5183 0 
30 2 -10.9923 -27.4783 0 
32 2 -9.86522 -27.4382 0 
34 2 -8.73856 -27.3981 0 
36 2 -7.61233 -27.3581 0 
38 2 -6.48656 -27.3184 0 
40 2 -5.36126 -27.2789 0 
41 2 -4.78357 -28.2426 0 
42 2 -4.23645 -27.24 0 
43 2 -3.65912 -28.2046 0 
44 2 -3.11213 -27.2015 0 
45 2 -2.53513 -28.1673 0 
46 2 -1.98828 -27.1638 0 
47 2 -1.41159 -28.1307 0 
48 2 -0.8649 -27.1269 0 
49 2 -0.288464 -28.095 0 
51 2 0.834263 -28.0602 0 
53 2 1.95663 -28.0264 0 
55 2 3.07869 -27.9937 0 
57 2 4.20048 -27.9622 0 
59 2 5.32207 -27.9319 0 
61 2 6.4435 -27.9029 0 
63 2 7.56483 -27.8752 0 
65 2 8.68613 -27.8488 0 
67 2 9.80743 -27.8237 0 
69 2 10.9288 -27.8 0 
71 2 12.0503 -27.7775 0 
73 2 13.1719 -27.7563 0 
75 2 14.2937 -27.7363 0 
77 2 15.4157 -27.7174 0 
79 2 16.538 -27.6997 0 
81 2 17.6605 -27.683 0 
83 2 18.7832 -27.6673 0 
85 2 19.9063 -27.6526 0 
87 2 21.0296 -27.6388 0 
89 2 22.1532 -27.6258 0 
91 2 23.2771 -27.6136 0 
93 2 24.4012 -27.6022 0 
95 2 25.5256 -27.5914 0 
97 2 26.6503 -27.5812 0 
99 2 27.7752 -27.5717 0 
101 2 -27.378 -27.0533 0 
103 2 -26.2487 -27.0183 0 
102 2 -26.833 -26.0633 0 
105 2 -25.1194 -26.9828 0 
104 2 -25.7037 -26.0278 0 
107 2 -23.9901 -26.9468 0 
106 2 -24.5742 -25.9918 0 
109 2 -22.8607 -26.9102 0 
108 1 -23.4441 -25.955 0 
111 2 -21.7314 -26.8732 0 
113 2 -20.6021 -26.8357 0 
115 2 -19.4729 -26.7977 0 
117 2 -18.3437 -26.7591 0 
119 2 -17.2147 -26.7202 0 
121 2 -16.0858 -26.6808 0 
123 2 -14.9572 -26.641 0 
125 2 -13.8287 -26.6009 0 
127 2 -12.7006 -26.5605 0 
129 2 -11.5727 -26.5198 0 
131 2 -10.4452 -26.479 0 
133 2 -9.31813 -26.4382 0 
135 2 -8.19146 -26.3973 0 
137 2 -7.06526 -26.3566 0 
139 2 -5.93954 -26.3162 0 
141 2 -4.81433 -26.2762 0 
143 2 -3.68963 -26.2366 0 
145 2 -2.56545 -26.1977 0 
147 2 -1.44177 -26.1596 0 
50 2 0.258046 -27.0909 0 
149 2 -0.318563 -26.1224 0 
52 2 1.38059 -27.056 0 
151 2 0.804196 -26.0862 0 
54 2 2.50279 -27.0222 0 
153 2 1.92656 -26.0512 0 
56 2 3.62468 -26.9896 0 
155 2 3.04857 -26.0174 0 
58 2 4.74633 -26.9582 0 
157 2 4.1703 -25.9849 0 
60 2 5.86779 -26.9282 0 
159 2 5.2918 -25.9538 0 
62 2 6.98913 -26.8996 0 
64 2 8.11041 -26.8723 0 
66 2 9.23169 -26.8465 0 
68 2 10.353 -26.822 0 
70 2 11.4745 -26.7989 0 
72 2 12.596 -26.7771 0 
74 2 13.7178 -26.7566 0 
76 2 14.8398 -26.7373 0 
78 2 15.962 -26.7192 0 
80 2 17.0845 -26.7023 0 
82 2 18.2073 -26.6863 0 
84 2 19.3304 -26.6714 0 
86 2 20.4538 -26.6575 0 
88 2 21.5774 -26.6444 0 
90 2 22.7014 -26.6321 0 
92 2 23.8256 -26.6206 0 
94 2 24.9501 -26.6098 0 
96 2 26.0749 -26.5996 0 
98 2 27.2 -26.5901 0 
100 2 28.3253 -26.5811 0 
201 2 -27.4179 -25.1085 0 
203 2 -26.2885 -25.0731 0 
205 2 -25.159 -25.0372 0 
207 2 -24.0295 -25.0007 0 
209 1 -22.899 -24.9627 0 
110 1 -22.3143 -25.9178 0 
211 1 -21.7697 -24.9241 0 
112 1 -21.185 -25.8798 0 
213 1 -20.6405 -24.8855 0 
114 1 -20.0558 -25.8414 0 
215 1 -19.5111 -24.8463 0 
116 1 -18.927 -25.8022 0 
217 1 -18.3818 -24.8059 0 
118 1 -17.7987 -25.7633 0 
120 1 -16.6697 -25.724 0 
122 1 -15.541 -25.6834 0 
124 1 -14.4127 -25.6429 0 
126 1 -13.2845 -25.602 0 
128 1 -12.1568 -25.5603 0 
130 1 -11.0293 -25.5187 0 
132 1 -9.90152 -25.4776 0 
134 1 -8.77444 -25.436 0 
136 1 -7.64856 -25.3941 0 
138 1 -6.52289 -25.353 0 
140 1 -5.39744 -25.3122 0 
142 1 -4.2726 -25.2717 0 
144 1 -3.14761 -25.2317 0 
146 1 -2.02377 -25.1921 0 
148 1 -0.900784 -25.1546 0 
150 1 0.222404 -25.1173 0 
152 1 1.34523 -25.0817 0 
154 1 2.46798 -25.0471 0 
156 1 3.59 -25.0134 0 
158 1 4.7118 -24.9815 0 
160 1 5.83321 -24.9507 0 
161 2 6.41316 -25.9242 0 
162 1 6.95461 -24.9226 0 
163 2 7.53443 -25.896 0 
164 1 8.07621 -24.8946 0 
165 2 8.65568 -25.8693 0 
167 2 9.77697 -25.844 0 
166 1 9.19782 -24.8689 0 
169 2 10.8984 -25.8202 0 
168 1 10.3197 -24.8444 0 
171 2 12.0199 -25.7978 0 
170 1 11.4417 -24.8209 0 
173 2 13.1416 -25.7768 0 
175 2 14.2636 -25.7571 0 
177 2 15.3858 -25.7386 0 
179 2 16.5083 -25.7213 0 
181 2 17.6311 -25.7052 0 
183 2 18.7543 -25.6901 0 
185 2 19.8777 -25.6759 0 
187 2 21.0014 -25.6627 0 
189 2 22.1254 -25.6504 0 
191 2 23.2498 -25.6388 0 
193 2 24.3744 -25.628 0 
195 2 25.4993 -25.6179 0 
197 2 26.6245 -25.6084 0 
199 2 27.75 -25.5994 0 
202 2 -26.8739 -24.1187 0 
204 2 -25.7444 -24.0828 0 
206 2 -24.6148 -24.0464 0 
208 1 -23.4842 -24.0086 0 
210 1 -22.3542 -23.9688 0 
212 1 -21.2247 -23.9297 0 
214 1 -20.0954 -23.8907 0 
216 1 -18.9666 -23.8502 0 
219 1 -17.2528 -24.7668 0 
218 1 -17.8373 -23.81 0 
221 1 -16.1245 -24.7258 0 
220 1 -16.709 -23.7691 0 
222 1 -15.5803 -23.7274 0 
223 1 -14.9961 -24.6848 0 
224 1 -14.4518 -23.6859 0 
225 1 -13.8681 -24.6438 0 
227 1 -12.7407 -24.6017 0 
229 1 -11.6133 -24.5592 0 
231 1 -10.4857 -24.5177 0 
233 1 -9.35858 -24.4756 0 
235 1 -8.23238 -24.4323 0 
237 1 -7.10662 -24.3903 0 
239 1 -5.98084 -24.3489 0 
241 1 -4.85574 -24.3075 0 
243 1 -3.73073 -24.2671 0 
245 1 -2.60648 -24.2264 0 
247 1 -1.48267 -24.1868 0 
249 1 -0.359415 -24.1493 0 
251 1 0.763803 -24.1121 0 
253 1 1.88639 -24.0767 0 
255 1 3.00865 -24.0419 0 
257 1 4.13076 -24.0091 0 
259 1 5.25285 -23.9775 0 
261 1 6.37478 -23.948 0 
263 1 7.49632 -23.9202 0 
265 1 8.61823 -23.8932 0 
267 1 9.74027 -23.8685 0 
269 1 10.8624 -23.8447 0 
271 1 11.9848 -23.8222 0 
172 1 12.5641 -24.7992 0 
273 1 13.1074 -23.8011 0 
174 1 13.6866 -24.7788 0 
275 1 14.2307 -23.7817 0 
176 1 14.8091 -24.76 0 
277 1 15.354 -23.7637 0 
178 1 15.9318 -24.7427 0 
279 1 16.4778 -23.7472 0 
180 1 17.0549 -24.7267 0 
281 1 17.6014 -23.7313 0 
182 1 18.1783 -24.7104 0 
283 1 18.7253 -23.7157 0 
184 1 19.3018 -24.6958 0 
285 1 19.8492 -23.7019 0 
186 1 20.4255 -24.6821 0 
287 1 20.9737 -23.6889 0 
188 1 21.5496 -24.6696 0 
289 1 22.0984 -23.6765 0 
190 1 22.6739 -24.6575 0 
291 1 23.2234 -23.6653 0 
192 1 23.7987 -24.6464 0 
293 1 24.3482 -23.6538 0 
194 1 24.9233 -24.6357 0 
295 2 25.4729 -23.6443 0 
196 2 26.0488 -24.6264 0 
198 2 27.1745 -24.6176 0 
200 2 28.3003 -24.6093 0 
301 2 -27.4598 -23.1644 0 
303 2 -26.3303 -23.1287 0 
305 2 -25.2007 -23.0924 0 
307 2 -24.071 -23.0555 0 
309 1 -22.9415 -23.0156 0 
311 1 -21.8112 -22.9756 0 
313 1 -20.6808 -22.9361 0 
315 1 -19.5517 -22.8952 0 
317 1 -18.4222 -22.855 0 
319 1 -17.2932 -22.8129 0 
321 1 -16.165 -22.7712 0 
323 1 -15.0361 -22.7294 0 
226 1 -13.3244 -23.6434 0 
325 1 -13.9082 -22.6859 0 
327 1 -12.7804 -22.6427 0 
228 1 -12.197 -23.601 0 
329 1 -11.6529 -22.5995 0 
230 1 -11.0693 -23.5581 0 
331 1 -10.5256 -22.5558 0 
232 1 -9.94214 -23.5157 0 
333 1 -9.39886 -22.5122 0 
234 1 -8.81547 -23.4718 0 
236 1 -7.6895 -23.4278 0 
238 1 -6.56368 -23.386 0 
240 1 -5.43844 -23.3439 0 
242 1 -4.31373 -23.3026 0 
244 1 -3.18949 -23.2613 0 
246 1 -2.06562 -23.2208 0 
248 1 -0.941677 -23.1812 0 
250 1 0.181844 -23.1435 0 
252 1 1.30491 -23.1064 0 
254 1 2.42752 -23.071 0 
256 1 3.55003 -23.0367 0 
258 1 4.6723 -23.0048 0 
260 1 5.79478 -22.9739 0 
262 1 6.91667 -22.9454 0 
264 1 8.03866 -22.9178 0 
266 1 9.16117 -22.8921 0 
268 1 10.2837 -22.8683 0 
270 1 11.4064 -22.8454 0 
272 1 12.529 -22.8236 0 
274 1 13.6523 -22.8038 0 
276 1 14.7756 -22.7847 0 
278 1 15.8991 -22.7681 0 
280 1 17.0231 -22.7516 0 
282 1 18.1476 -22.7362 0 
284 1 19.2725 -22.7216 0 
286 1 20.397 -22.7084 0 
288 1 21.5216 -22.6958 0 
290 1 22.6465 -22.6841 0 
292 1 23.7719 -22.673 0 
294 1 24.8976 -22.6624 0 
297 2 26.5987 -23.6355 0 
296 2 26.0228 -22.6533 0 
299 2 27.7248 -23.6273 0 
298 2 27.149 -22.6452 0 
300 2 28.2755 -22.6376 0 
302 2 -26.9167 -22.1747 0 
304 2 -25.7871 -22.1385 0 
306 2 -24.6574 -22.1018 0 
308 1 -23.5273 -22.0624 0 
310 1 -22.3971 -22.0224 0 
312 1 -21.2668 -21.9827 0 
314 1 -20.1375 -21.941 0 
316 1 -19.0078 -21.9007 0 
318 1 -17.8791 -21.8581 0 
320 1 -16.7501 -21.8151 0 
322 1 -15.6208 -21.7734 0 
324 1 -14.4927 -21.7294 0 
326 1 -13.3648 -21.6855 0 
328 1 -12.2371 -21.6414 0 
330 1 -11.1094 -21.5968 0 
332 1 -9.98201 -21.5523 0 
334 1 -8.85531 -21.5074 0 
335 1 -8.2724 -22.4669 0 
336 1 -7.72916 -21.4623 0 
337 1 -7.14604 -22.4235 0 
338 1 -6.60379 -21.4181 0 
339 1 -6.02057 -22.3805 0 
340 1 -5.4789 -21.3741 0 
341 1 -4.89597 -22.3379 0 
343 1 -3.77155 -22.2961 0 
345 1 -2.64756 -22.2544 0 
347 1 -1.52384 -22.2141 0 
349 1 -0.400058 -22.175 0 
351 1 0.723151 -22.137 0 
353 1 1.84638 -22.1006 0 
355 1 2.96908 -22.0655 0 
357 1 4.09175 -22.0322 0 
359 1 5.21461 -22.0012 0 
361 1 6.33749 -21.971 0 
363 1 7.45964 -21.9429 0 
365 1 8.58209 -21.9164 0 
367 1 9.70484 -21.8914 0 
369 1 10.8279 -21.8682 0 
371 1 11.9513 -21.8458 0 
373 1 13.0742 -21.8256 0 
375 1 14.1974 -21.8062 0 
377 1 15.3211 -21.7883 0 
379 1 16.4452 -21.7721 0 
381 1 17.5701 -21.7567 0 
383 1 18.6952 -21.742 0 
385 1 19.8201 -21.7279 0 
387 1 20.9452 -21.7153 0 
389 1 22.0705 -21.7032 0 
391 1 23.1958 -21.6919 0 
393 1 24.3212 -21.6812 0 
395 2 25.4466 -21.6709 0 
397 2 26.573 -21.6629 0 
399 2 27.6998 -21.6554 0 
401 2 -27.5037 -21.2208 0 
403 2 -26.3741 -21.1849 0 
402 2 -26.9617 -20.2313 0 
405 2 -25.2445 -21.1483 0 
404 2 -25.8321 -20.1949 0 
407 2 -24.1147 -21.111 0 
409 1 -22.9839 -21.0695 0 
411 1 -21.8539 -21.029 0 
413 1 -20.7244 -20.9877 0 
415 1 -19.594 -20.9466 0 
417 1 -18.4647 -20.9039 0 
419 1 -17.3359 -20.8601 0 
421 1 -16.2068 -20.8178 0 
423 1 -15.0784 -20.7736 0 
425 1 -13.9497 -20.7293 0 
427 1 -12.8214 -20.6845 0 
429 1 -11.6935 -20.6394 0 
431 1 -10.5658 -20.5937 0 
433 1 -9.43888 -20.5481 0 
435 1 -8.31217 -20.5022 0 
437 1 -7.18665 -20.4564 0 
439 1 -6.06128 -20.4116 0 
342 1 -4.3543 -21.3315 0 
441 1 -4.93587 -20.3673 0 
344 1 -3.23 -21.2886 0 
443 1 -3.8115 -20.3236 0 
346 1 -2.10597 -21.2469 0 
445 1 -2.68707 -20.2805 0 
348 1 -0.98241 -21.207 0 
447 1 -1.56312 -20.239 0 
350 1 0.141002 -21.168 0 
352 1 1.26442 -21.1306 0 
354 1 2.38753 -21.0945 0 
356 1 3.51054 -21.0603 0 
358 1 4.63353 -21.0283 0 
360 1 5.75696 -20.9973 0 
362 1 6.88009 -20.9679 0 
364 1 8.00293 -20.9411 0 
366 1 9.12572 -20.9152 0 
368 1 10.2491 -20.8908 0 
370 1 11.3723 -20.8682 0 
372 1 12.4957 -20.8468 0 
374 1 13.619 -20.8274 0 
376 1 14.743 -20.8085 0 
378 1 15.8673 -20.7923 0 
380 1 16.9922 -20.7769 0 
382 1 18.1171 -20.7624 0 
384 1 19.2424 -20.7479 0 
386 1 20.368 -20.7353 0 
388 1 21.494 -20.723 0 
390 1 22.6195 -20.7107 0 
392 1 23.7448 -20.6999 0 
394 1 24.8707 -20.6896 0 
396 2 25.9969 -20.6804 0 
398 2 27.1238 -20.673 0 
400 2 28.251 -20.6661 0 
501 2 -27.5497 -19.2779 0 
503 2 -26.4202 -19.2417 0 
505 2 -25.2906 -19.2049 0 
406 2 -24.7023 -20.1579 0 
507 2 -24.1608 -19.1673 0 
408 1 -23.5719 -20.1179 0 
509 1 -23.0296 -19.1246 0 
410 1 -22.4415 -20.0759 0 
511 1 -21.8987 -19.0821 0 
412 1 -21.3117 -20.0345 0 
513 1 -20.7682 -19.0405 0 
414 1 -20.1812 -19.9932 0 
416 1 -19.0514 -19.9502 0 
418 1 -17.9221 -19.9062 0 
420 1 -16.7927 -19.8626 0 
422 1 -15.6643 -19.8184 0 
424 1 -14.5351 -19.7739 0 
426 1 -13.4063 -19.7289 0 
428 1 -12.2781 -19.6829 0 
430 1 -11.1503 -19.6366 0 
432 1 -10.023 -19.5893 0 
434 1 -8.89638 -19.5433 0 
436 1 -7.77039 -19.4961 0 
438 1 -6.64457 -19.4502 0 
440 1 -5.51871 -19.4051 0 
442 1 -4.39358 -19.3591 0 
444 1 -3.26919 -19.3152 0 
446 1 -2.14468 -19.2723 0 
448 1 -1.02106 -19.2311 0 
449 1 -0.43958 -20.1994 0 
450 1 0.102048 -19.1912 0 
451 1 0.683749 -20.1606 0 
452 1 1.22535 -19.1524 0 
453 1 1.8068 -20.1236 0 
454 1 2.34866 -19.1162 0 
455 1 2.92985 -20.0882 0 
456 1 3.47212 -19.0821 0 
457 1 4.05279 -20.055 0 
459 1 5.17575 -20.0237 0 
461 1 6.29907 -19.9933 0 
463 1 7.42285 -19.9653 0 
465 1 8.54598 -19.9385 0 
467 1 9.66938 -19.914 0 
469 1 10.7927 -19.8902 0 
471 1 11.9165 -19.8685 0 
473 1 13.0407 -19.8483 0 
475 1 14.1651 -19.8297 0 
477 1 15.2897 -19.812 0 
479 1 16.4139 -19.7967 0 
481 1 17.5388 -19.7818 0 
483 1 18.6643 -19.7681 0 
485 1 19.7899 -19.7547 0 
487 1 20.9156 -19.7429 0 
489 1 22.0414 -19.7301 0 
491 1 23.1678 -19.7186 0 
493 1 24.2942 -19.7083 0 
495 2 25.4205 -19.6978 0 
497 2 26.5477 -19.6905 0 
499 2 27.6751 -19.6838 0 
502 2 -27.0088 -18.2886 0 
504 2 -25.8793 -18.252 0 
506 2 -24.7497 -18.2147 0 
508 1 -23.6189 -18.1742 0 
510 1 -22.4882 -18.1311 0 
512 1 -21.3574 -18.0886 0 
514 1 -20.2272 -18.0446 0 
515 1 -19.6388 -18.997 0 
516 1 -19.0968 -18.0003 0 
517 1 -18.5095 -18.9531 0 
518 1 -17.9669 -17.9561 0 
519 1 -17.3799 -18.909 0 
520 1 -16.8375 -17.9107 0 
521 1 -16.2505 -18.8637 0 
523 1 -15.1211 -18.8194 0 
525 1 -13.9919 -18.7738 0 
527 1 -12.8635 -18.7275 0 
529 1 -11.7353 -18.6803 0 
531 1 -10.608 -18.6321 0 
533 1 -9.48063 -18.5846 0 
535 1 -8.35409 -18.5372 0 
537 1 -7.22797 -18.4896 0 
539 1 -6.10252 -18.4433 0 
541 1 -4.97768 -18.3964 0 
543 1 -3.85262 -18.3503 0 
545 1 -2.7279 -18.3068 0 
547 1 -1.60393 -18.2633 0 
549 1 -0.480739 -18.2221 0 
551 1 0.642628 -18.1825 0 
553 1 1.7667 -18.1444 0 
555 1 2.89022 -18.1091 0 
557 1 4.01327 -18.0753 0 
458 1 4.59502 -19.0495 0 
559 1 5.13632 -18.0433 0 
460 1 5.7179 -19.0183 0 
561 1 6.26035 -18.0136 0 
462 1 6.84119 -18.9898 0 
563 1 7.38421 -17.9856 0 
464 1 7.96469 -18.962 0 
565 1 8.50807 -17.9594 0 
466 1 9.08857 -18.9368 0 
567 1 9.63206 -17.9349 0 
468 1 10.2121 -18.9126 0 
569 1 10.7564 -17.912 0 
470 1 11.3364 -18.8903 0 
472 1 12.4609 -18.8697 0 
474 1 13.5857 -18.8506 0 
476 1 14.7105 -18.8327 0 
478 1 15.8356 -18.8162 0 
480 1 16.961 -18.8013 0 
482 1 18.087 -18.7878 0 
484 1 19.2128 -18.7742 0 
486 1 20.3387 -18.7617 0 
488 1 21.4645 -18.7494 0 
490 1 22.591 -18.7378 0 
492 1 23.7177 -18.7268 0 
494 1 24.8441 -18.7162 0 
496 2 25.9714 -18.7078 0 
498 2 27.0991 -18.7012 0 
500 2 28.2271 -18.6951 0 
601 2 -27.5979 -17.3354 0 
603 2 -26.4686 -17.2992 0 
605 2 -25.3391 -17.2621 0 
607 2 -24.2094 -17.2244 0 
609 1 -23.0779 -17.1805 0 
611 1 -21.9468 -17.1374 0 
613 1 -20.8166 -17.0932 0 
615 1 -19.6859 -17.0488 0 
617 1 -18.5548 -17.0042 0 
619 1 -17.4251 -16.9585 0 
522 1 -15.7072 -17.8654 0 
621 1 -16.2951 -16.9131 0 
524 1 -14.5781 -17.8193 0 
623 1 -15.1654 -16.8657 0 
526 1 -13.4494 -17.7723 0 
625 1 -14.0362 -16.8179 0 
528 1 -12.3212 -17.7249 0 
627 1 -12.9074 -16.7699 0 
530 1 -11.1935 -17.6759 0 
532 1 -10.0656 -17.6275 0 
534 1 -8.93844 -17.5789 0 
536 1 -7.81183 -17.5306 0 
538 1 -6.68571 -17.4821 0 
540 1 -5.56079 -17.4342 0 
542 1 -4.43571 -17.3869 0 
544 1 -3.31029 -17.3414 0 
546 1 -2.1863 -17.2967 0 
548 1 -1.06267 -17.2533 0 
550 1 0.0608815 -17.2124 0 
552 1 1.18453 -17.1734 0 
554 1 2.30816 -17.1363 0 
556 1 3.43158 -17.1016 0 
558 1 4.55504 -17.0679 0 
560 1 5.67867 -17.0377 0 
562 1 6.80264 -17.0092 0 
564 1 7.92723 -16.9822 0 
566 1 9.05183 -16.957 0 
568 1 10.1763 -16.9334 0 
571 1 11.881 -17.8908 0 
570 1 11.3009 -16.9118 0 
573 1 13.0062 -17.8712 0 
572 1 12.4262 -16.892 0 
575 1 14.1311 -17.8531 0 
574 1 13.5516 -16.8731 0 
577 1 15.2564 -17.8362 0 
576 1 14.6773 -16.8565 0 
579 1 16.3822 -17.8211 0 
578 1 15.8033 -16.8407 0 
581 1 17.5086 -17.8071 0 
580 1 16.9296 -16.8264 0 
583 1 18.6349 -17.794 0 
582 1 18.0564 -16.813 0 
585 1 19.7613 -17.7809 0 
584 1 19.183 -16.8005 0 
587 1 20.8875 -17.7682 0 
586 1 20.3097 -16.7876 0 
589 1 22.0141 -17.7568 0 
588 1 21.4369 -16.7755 0 
591 1 23.1411 -17.746 0 
590 1 22.5641 -16.7646 0 
593 1 24.268 -17.7346 0 
592 1 23.6913 -16.7541 0 
595 2 25.3948 -17.725 0 
594 1 24.8189 -16.7434 0 
596 2 25.9465 -16.7357 0 
597 2 26.5229 -17.7186 0 
598 2 27.0751 -16.7299 0 
599 2 27.6512 -17.7126 0 
600 2 28.2039 -16.7246 0 
602 2 -27.0583 -16.3463 0 
604 2 -25.929 -16.3096 0 
606 2 -24.7995 -16.2721 0 
608 1 -23.6689 -16.2312 0 
610 1 -22.5377 -16.1872 0 
612 1 -21.4067 -16.1425 0 
614 1 -20.2759 -16.0981 0 
616 1 -19.1447 -16.0536 0 
618 1 -18.0144 -16.0071 0 
620 1 -16.8841 -15.9612 0 
622 1 -15.7541 -15.9135 0 
624 1 -14.6242 -15.8648 0 
626 1 -13.4943 -15.8161 0 
628 1 -12.366 -15.7664 0 
629 1 -11.7794 -16.7205 0 
630 1 -11.2371 -15.7163 0 
631 1 -10.6513 -16.6717 0 
632 1 -10.1091 -15.6661 0 
633 1 -9.52343 -16.6219 0 
634 1 -8.98171 -15.615 0 
635 1 -8.39635 -16.5723 0 
637 1 -7.27024 -16.5225 0 
639 1 -6.14484 -16.4728 0 
641 1 -5.01988 -16.4244 0 
643 1 -3.89437 -16.3772 0 
645 1 -2.77003 -16.3305 0 
647 1 -1.64651 -16.2857 0 
649 1 -0.522743 -16.2431 0 
651 1 0.601167 -16.2023 0 
653 1 1.72509 -16.1641 0 
655 1 2.84891 -16.1282 0 
657 1 3.97217 -16.0937 0 
659 1 5.09628 -16.0614 0 
661 1 6.22036 -16.0324 0 
663 1 7.34475 -16.0052 0 
665 1 8.46974 -15.9795 0 
667 1 9.59524 -15.9554 0 
669 1 10.7208 -15.9327 0 
671 1 11.8466 -15.9122 0 
673 1 12.9719 -15.8932 0 
675 1 14.0981 -15.8764 0 
677 1 15.2245 -15.8604 0 
679 1 16.3513 -15.8457 0 
681 1 17.4783 -15.832 0 
683 1 18.6053 -15.8189 0 
685 1 19.7319 -15.8068 0 
687 1 20.8594 -15.7948 0 
689 1 21.9872 -15.7833 0 
691 1 23.1148 -15.7725 0 
693 1 24.2421 -15.7627 0 
695 2 25.3699 -15.7527 0 
697 2 26.4989 -15.7471 0 
699 2 27.6281 -15.742 0 
701 2 -27.6483 -15.3934 0 
703 2 -26.5193 -15.357 0 
705 2 -25.3901 -15.3199 0 
707 2 -24.2607 -15.282 0 
709 1 -23.1299 -15.2379 0 
711 1 -21.9982 -15.1934 0 
713 1 -20.8664 -15.1478 0 
715 1 -19.7357 -15.1033 0 
717 1 -18.6056 -15.057 0 
719 1 -17.4745 -15.0103 0 
721 1 -16.3441 -14.9622 0 
723 1 -15.2135 -14.9134 0 
725 1 -14.0829 -14.8641 0 
727 1 -12.9536 -14.8132 0 
729 1 -11.8247 -14.7627 0 
731 1 -10.696 -14.711 0 
733 1 -9.56812 -14.6591 0 
636 1 -7.85517 -15.5637 0 
735 1 -8.44068 -14.6064 0 
638 1 -6.72948 -15.5123 0 
737 1 -7.31459 -14.553 0 
640 1 -5.60399 -15.4622 0 
739 1 -6.18854 -14.5016 0 
642 1 -4.47902 -15.4139 0 
644 1 -3.3543 -15.3654 0 
646 1 -2.23006 -15.319 0 
648 1 -1.10617 -15.2746 0 
650 1 0.0174767 -15.2321 0 
652 1 1.14166 -15.1923 0 
654 1 2.26569 -15.1553 0 
656 1 3.38918 -15.1193 0 
658 1 4.51327 -15.0863 0 
660 1 5.63781 -15.0556 0 
662 1 6.76279 -15.0277 0 
664 1 7.88814 -15.0018 0 
666 1 9.01387 -14.9773 0 
668 1 10.1399 -14.9541 0 
670 1 11.2662 -14.9331 0 
672 1 12.3921 -14.913 0 
674 1 13.5184 -14.8959 0 
676 1 14.6451 -14.8798 0 
678 1 15.7719 -14.865 0 
680 1 16.8987 -14.8511 0 
682 1 18.0262 -14.838 0 
684 1 19.1538 -14.8251 0 
686 1 20.2813 -14.8136 0 
688 1 21.4091 -14.8024 0 
690 1 22.5374 -14.7916 0 
692 1 23.6658 -14.7814 0 
694 1 24.7941 -14.7718 0 
696 2 25.9226 -14.7642 0 
698 2 27.0521 -14.7592 0 
700 2 28.1818 -14.7547 0 
702 2 -27.11 -14.4044 0 
801 2 -27.7009 -13.4516 0 
704 2 -25.9811 -14.3676 0 
803 2 -26.5724 -13.4152 0 
706 2 -24.852 -14.3301 0 
805 2 -25.4437 -13.3781 0 
708 1 -23.7217 -14.2884 0 
807 2 -24.3146 -13.3401 0 
710 1 -22.5908 -14.2445 0 
809 1 -23.184 -13.2955 0 
712 1 -21.4591 -14.1994 0 
714 1 -20.3274 -14.1534 0 
716 1 -19.197 -14.107 0 
718 1 -18.0664 -14.0607 0 
720 1 -16.9356 -14.0121 0 
722 1 -15.8042 -13.9632 0 
724 1 -14.6729 -13.9132 0 
726 1 -13.5429 -13.8614 0 
728 1 -12.413 -13.8102 0 
730 1 -11.2838 -13.7576 0 
732 1 -10.1551 -13.7044 0 
734 1 -9.0271 -13.6506 0 
736 1 -7.90045 -13.5958 0 
738 1 -6.77396 -13.5425 0 
740 1 -5.64795 -13.4898 0 
741 1 -5.06291 -14.4507 0 
742 1 -4.52266 -13.4378 0 
743 1 -3.93831 -14.4009 0 
744 1 -3.3978 -13.3874 0 
745 1 -2.81365 -14.3527 0 
746 1 -2.27313 -13.3386 0 
747 1 -1.68942 -14.3067 0 
749 1 -0.565762 -14.262 0 
751 1 0.558254 -14.2206 0 
753 1 1.68212 -14.1821 0 
755 1 2.80577 -14.145 0 
757 1 3.92997 -14.1113 0 
759 1 5.05465 -14.0794 0 
761 1 6.17978 -14.0504 0 
763 1 7.30524 -14.0237 0 
765 1 8.43094 -13.999 0 
767 1 9.55704 -13.9753 0 
769 1 10.6838 -13.9541 0 
771 1 11.8102 -13.9333 0 
773 1 12.9369 -13.9149 0 
775 1 14.0641 -13.8987 0 
777 1 15.1917 -13.8842 0 
779 1 16.3196 -13.8699 0 
781 1 17.4474 -13.8571 0 
783 1 18.5756 -13.8444 0 
785 1 19.704 -13.8321 0 
787 1 20.8321 -13.8212 0 
789 1 21.9606 -13.8108 0 
791 1 23.0892 -13.8007 0 
793 1 24.2179 -13.7908 0 
795 2 25.3462 -13.7811 0 
797 2 26.4761 -13.7764 0 
799 2 27.6062 -13.772 0 
802 2 -27.164 -12.4626 0 
804 2 -26.0357 -12.4259 0 
806 2 -24.9071 -12.3884 0 
808 1 -23.7774 -12.3477 0 
810 1 -22.6462 -12.3024 0 
811 1 -22.0532 -13.2511 0 
812 1 -21.5151 -12.2571 0 
813 1 -20.9216 -13.2054 0 
814 1 -20.3837 -12.2112 0 
815 1 -19.7897 -13.1586 0 
816 1 -19.2521 -12.1633 0 
817 1 -18.6584 -13.1113 0 
818 1 -18.121 -12.1147 0 
819 1 -17.528 -13.0632 0 
821 1 -16.3966 -13.0143 0 
823 1 -15.2647 -12.9636 0 
825 1 -14.1339 -12.9109 0 
827 1 -13.0033 -12.8588 0 
829 1 -11.8735 -12.8056 0 
831 1 -10.7438 -12.7512 0 
833 1 -9.61465 -12.6965 0 
835 1 -8.48672 -12.6402 0 
837 1 -7.35978 -12.5852 0 
839 1 -6.23366 -12.5305 0 
841 1 -5.1079 -12.4763 0 
843 1 -3.9828 -12.4231 0 
845 1 -2.85839 -12.3722 0 
748 1 -1.14939 -13.292 0 
847 1 -1.73434 -12.323 0 
849 1 -0.610467 -12.2783 0 
750 1 -0.0254406 -13.2494 0 
851 1 0.513341 -12.2358 0 
752 1 1.09828 -13.2086 0 
853 1 1.63767 -12.1965 0 
754 1 2.22214 -13.1707 0 
756 1 3.34653 -13.1354 0 
758 1 4.47113 -13.1031 0 
760 1 5.59655 -13.0731 0 
762 1 6.72263 -13.0454 0 
764 1 7.84873 -13.0202 0 
766 1 8.97484 -12.9963 0 
768 1 10.1019 -12.9747 0 
770 1 11.2293 -12.9539 0 
772 1 12.3572 -12.9348 0 
774 1 13.4852 -12.9175 0 
776 1 14.6131 -12.9024 0 
778 1 15.7412 -12.8891 0 
780 1 16.8696 -12.8755 0 
782 1 17.9978 -12.8635 0 
784 1 19.1264 -12.8517 0 
786 1 20.2554 -12.8401 0 
788 1 21.3841 -12.8295 0 
790 1 22.513 -12.8198 0 
792 1 23.6417 -12.8099 0 
794 1 24.7708 -12.8003 0 
796 2 25.9 -12.7934 0 
798 2 27.0306 -12.7893 0 
800 2 28.1612 -12.7854 0 
901 2 -27.7557 -11.5099 0 
903 2 -26.6279 -11.4735 0 
905 2 -25.4997 -11.4364 0 
907 2 -24.3713 -11.3985 0 
909 1 -23.2414 -11.3549 0 
911 1 -22.1104 -11.3092 0 
913 1 -20.9792 -11.2632 0 
915 1 -19.8479 -11.2161 0 
917 1 -18.7165 -11.1674 0 
820 1 -16.9898 -12.0656 0 
919 1 -17.585 -11.1181 0 
822 1 -15.8584 -12.015 0 
921 1 -16.4531 -11.0675 0 
824 1 -14.7272 -11.9625 0 
923 1 -15.3215 -11.0151 0 
826 1 -13.5954 -11.9093 0 
828 1 -12.4648 -11.8551 0 
830 1 -11.3345 -11.8002 0 
832 1 -10.2043 -11.7442 0 
834 1 -9.07518 -11.6869 0 
836 1 -7.94686 -11.6296 0 
838 1 -6.82005 -11.5725 0 
840 1 -5.69392 -11.5162 0 
842 1 -4.56862 -11.4606 0 
844 1 -3.44418 -11.4064 0 
846 1 -2.3203 -11.3553 0 
848 1 -1.19615 -11.3076 0 
850 1 -0.0720031 -11.2635 0 
852 1 1.05241 -11.2219 0 
855 1 2.76243 -12.1597 0 
854 1 2.17724 -11.1843 0 
857 1 3.88759 -12.1262 0 
856 1 3.30249 -11.1496 0 
859 1 5.01305 -12.0954 0 
858 1 4.42836 -11.1177 0 
861 1 6.13889 -12.0669 0 
860 1 5.5548 -11.0884 0 
863 1 7.2656 -12.041 0 
862 1 6.68218 -11.062 0 
865 1 8.39266 -12.0172 0 
864 1 7.80965 -11.0376 0 
867 1 9.52048 -11.995 0 
869 1 10.6481 -11.9742 0 
871 1 11.7761 -11.9548 0 
873 1 12.9047 -11.9374 0 
875 1 14.0333 -11.9211 0 
877 1 15.162 -11.9071 0 
879 1 16.2902 -11.894 0 
881 1 17.4193 -11.8817 0 
883 1 18.5484 -11.8704 0 
885 1 19.6775 -11.8594 0 
887 1 20.807 -11.8482 0 
889 1 21.9363 -11.8385 0 
891 1 23.0653 -11.8289 0 
893 1 24.1946 -11.8195 0 
895 2 25.3239 -11.8103 0 
897 2 26.4549 -11.8064 0 
899 2 27.586 -11.8028 0 
902 2 -27.2202 -10.5209 0 
904 2 -26.0925 -10.4842 0 
906 2 -24.9646 -10.4468 0 
908 1 -23.8355 -10.406 0 
910 1 -22.706 -10.3618 0 
912 1 -21.5758 -10.3161 0 
914 1 -20.4445 -10.2692 0 
916 1 -19.3129 -10.2211 0 
918 1 -18.1814 -10.1718 0 
920 1 -17.0495 -10.1214 0 
922 1 -15.9176 -10.0687 0 
924 1 -14.7852 -10.0159 0 
925 1 -14.1892 -10.9623 0 
926 1 -13.6532 -9.96083 0 
927 1 -13.0576 -10.9069 0 
928 1 -12.5207 -9.90396 0 
929 1 -11.9265 -10.8508 0 
930 1 -11.3883 -9.84658 0 
931 1 -10.7958 -10.7943 0 
933 1 -9.66579 -10.7356 0 
935 1 -8.5363 -10.6765 0 
937 1 -7.40799 -10.6169 0 
939 1 -6.28089 -10.558 0 
941 1 -5.15497 -10.4995 0 
943 1 -4.03007 -10.4422 0 
945 1 -2.90589 -10.3884 0 
947 1 -1.78177 -10.338 0 
949 1 -0.657596 -10.2911 0 
951 1 0.466273 -10.2478 0 
953 1 1.5914 -10.209 0 
955 1 2.71677 -10.1732 0 
957 1 3.84302 -10.1405 0 
959 1 4.96979 -10.1098 0 
961 1 6.09811 -10.0832 0 
963 1 7.22637 -10.0585 0 
965 1 8.35498 -10.0356 0 
866 1 8.93759 -11.0156 0 
967 1 9.48357 -10.014 0 
868 1 10.066 -10.994 0 
969 1 10.6129 -9.99411 0 
870 1 11.1946 -10.9746 0 
971 1 11.7425 -9.97649 0 
872 1 12.3241 -10.957 0 
973 1 12.873 -9.95985 0 
874 1 13.4533 -10.9408 0 
975 1 14.003 -9.94495 0 
876 1 14.5828 -10.926 0 
977 1 15.133 -9.93086 0 
878 1 15.7125 -10.912 0 
979 1 16.2632 -9.91759 0 
880 1 16.8417 -10.9001 0 
981 1 17.3929 -9.90632 0 
882 1 17.9712 -10.8881 0 
983 1 18.5229 -9.8953 0 
884 1 19.1006 -10.8777 0 
985 1 19.6529 -9.88578 0 
886 1 20.2302 -10.8673 0 
987 1 20.7831 -9.87561 0 
888 1 21.3601 -10.8568 0 
890 1 22.4896 -10.8479 0 
989 1 21.9135 -9.86602 0 
892 1 23.6191 -10.8384 0 
991 1 23.0432 -9.85738 0 
894 1 24.7489 -10.8295 0 
993 1 24.1736 -9.8485 0 
896 2 25.8793 -10.8234 0 
995 2 25.3037 -9.84035 0 
898 2 27.0108 -10.8201 0 
997 2 26.4357 -9.83726 0 
900 2 28.1423 -10.817 0 
999 2 27.5677 -9.8344 0 
1001 2 -27.8125 -9.56805 0 
1003 2 -26.6854 -9.5318 0 
1005 2 -25.5581 -9.49477 0 
1007 2 -24.4305 -9.45693 0 
1009 1 -23.3008 -9.41365 0 
1011 1 -22.1715 -9.36863 0 
1013 1 -21.0417 -9.32306 0 
1015 1 -19.9104 -9.27563 0 
1017 1 -18.7794 -9.2264 0 
1019 1 -17.6477 -9.17633 0 
1021 1 -16.516 -9.12374 0 
1023 1 -15.3833 -9.07039 0 
1025 1 -14.2505 -9.01585 0 
1027 1 -13.1173 -8.9589 0 
1029 1 -11.9841 -8.90067 0 
932 1 -10.257 -9.78638 0 
1031 1 -10.8522 -8.84018 0 
934 1 -9.12659 -9.72572 0 
1033 1 -9.71998 -8.77805 0 
936 1 -7.99733 -9.66419 0 
1035 1 -8.58947 -8.71408 0 
938 1 -6.86909 -9.60222 0 
940 1 -5.74299 -9.54116 0 
942 1 -4.61785 -9.48067 0 
944 1 -3.49271 -9.42249 0 
946 1 -2.36845 -9.36893 0 
948 1 -1.24444 -9.31912 0 
950 1 -0.120298 -9.27375 0 
952 1 1.00483 -9.23376 0 
954 1 2.13025 -9.19638 0 
956 1 3.25698 -9.16324 0 
958 1 4.38436 -9.1317 0 
960 1 5.51282 -9.10435 0 
962 1 6.64181 -9.07879 0 
964 1 7.7713 -9.05569 0 
966 1 8.90063 -9.03348 0 
968 1 10.0305 -9.01408 0 
970 1 11.161 -8.99553 0 
972 1 12.292 -8.97922 0 
974 1 13.4226 -8.96317 0 
976 1 14.5532 -8.94928 0 
978 1 15.6845 -8.93599 0 
980 1 16.8156 -8.924 0 
982 1 17.9456 -8.91324 0 
984 1 19.0761 -8.90383 0 
986 1 20.2064 -8.8943 0 
988 1 21.3375 -8.88467 0 
990 1 22.4683 -8.87566 0 
992 1 23.5989 -8.8676 0 
994 1 24.7298 -8.85976 0 
996 2 25.8608 -8.85435 0 
998 2 26.9933 -8.85174 0 
1000 2 28.1257 -8.84931 0 
1002 2 -27.2783 -8.57905 0 
1101 2 -27.8711 -7.62598 0 
1004 2 -26.1516 -8.54247 0 
1103 2 -26.7449 -7.58983 0 
1006 2 -25.0246 -8.50509 0 
1105 2 -25.6186 -7.5529 0 
1008 1 -23.8967 -8.4651 0 
1107 2 -24.492 -7.51516 0 
1010 1 -22.7677 -8.42048 0 
1012 1 -21.6382 -8.37578 0 
1014 1 -20.5085 -8.3299 0 
1016 1 -19.3783 -8.281 0 
1018 1 -18.2471 -8.23153 0 
1020 1 -17.1157 -8.17984 0 
1022 1 -15.9833 -8.12648 0 
1024 1 -14.8505 -8.0721 0 
1026 1 -13.7172 -8.01586 0 
1028 1 -12.5831 -7.95685 0 
1030 1 -11.45 -7.89549 0 
1032 1 -10.3166 -7.83323 0 
1034 1 -9.18466 -7.76716 0 
1036 1 -8.05371 -7.70051 0 
1037 1 -7.46002 -8.64984 0 
1038 1 -6.9242 -7.63276 0 
1039 1 -6.33208 -8.58505 0 
1041 1 -5.20617 -8.52132 0 
1043 1 -4.08073 -8.45937 0 
1045 1 -2.95618 -8.40054 0 
1047 1 -1.83255 -8.34797 0 
1049 1 -0.707743 -8.30002 0 
1051 1 0.417358 -8.25754 0 
1053 1 1.54309 -8.21937 0 
1055 1 2.67036 -8.1851 0 
1057 1 3.79811 -8.15351 0 
1059 1 4.92719 -8.12493 0 
1061 1 6.05651 -8.09908 0 
1063 1 7.18659 -8.07591 0 
1065 1 8.31675 -8.05341 0 
1067 1 9.44785 -8.03341 0 
1069 1 10.5788 -8.01497 0 
1071 1 11.7105 -7.99806 0 
1073 1 12.8418 -7.98198 0 
1075 1 13.9729 -7.96768 0 
1077 1 15.1043 -7.95455 0 
1079 1 16.2365 -7.94229 0 
1081 1 17.3682 -7.93082 0 
1083 1 18.4995 -7.92162 0 
1085 1 19.6302 -7.91221 0 
1087 1 20.7611 -7.9035 0 
1089 1 21.8928 -7.89453 0 
1091 1 23.0241 -7.88629 0 
1093 1 24.1554 -7.87863 0 
1095 2 25.2861 -7.87134 0 
1097 2 26.419 -7.86899 0 
1099 2 27.5519 -7.8668 0 
1102 2 -27.3381 -6.63684 0 
1104 2 -26.2124 -6.60035 0 
1106 2 -25.0865 -6.56307 0 
1108 1 -23.9599 -6.52307 0 
1109 1 -23.3642 -7.47242 0 
1110 1 -22.8329 -6.48012 0 
1111 1 -22.2352 -7.42767 0 
1112 1 -21.7043 -6.43505 0 
1113 1 -21.1064 -7.38255 0 
1114 1 -20.5758 -6.38846 0 
1115 1 -19.9778 -7.3354 0 
1116 1 -19.4468 -6.3415 0 
1117 1 -18.8473 -7.28667 0 
1119 1 -17.7159 -7.23593 0 
1121 1 -16.584 -7.18365 0 
1123 1 -15.4515 -7.12912 0 
1125 1 -14.3188 -7.07379 0 
1127 1 -13.185 -7.01556 0 
1129 1 -12.0512 -6.95342 0 
1131 1 -10.9169 -6.89062 0 
1133 1 -9.78361 -6.8237 0 
1135 1 -8.6511 -6.75475 0 
1137 1 -7.51983 -6.68401 0 
1139 1 -6.39004 -6.61164 0 
1040 1 -5.79655 -7.56445 0 
1141 1 -5.26246 -6.5405 0 
1042 1 -4.67071 -7.49837 0 
1143 1 -4.13693 -6.47173 0 
1044 1 -3.54605 -7.43495 0 
1046 1 -2.42166 -7.37704 0 
1048 1 -1.29694 -7.32697 0 
1050 1 -0.171339 -7.2813 0 
1052 1 0.955238 -7.242 0 
1054 1 2.0824 -7.2066 0 
1056 1 3.21075 -7.17385 0 
1058 1 4.34028 -7.14538 0 
1060 1 5.47048 -7.11897 0 
1062 1 6.60121 -7.09562 0 
1064 1 7.73196 -7.07313 0 
1066 1 8.86367 -7.05279 0 
1068 1 9.99569 -7.03389 0 
1070 1 11.128 -7.01708 0 
1072 1 12.2601 -7.00075 0 
1074 1 13.3923 -6.98624 0 
1076 1 14.5244 -6.9727 0 
1078 1 15.6571 -6.96075 0 
1080 1 16.7898 -6.94908 0 
1082 1 17.9226 -6.93939 0 
1084 1 19.0543 -6.92956 0 
1086 1 20.1858 -6.92123 0 
1088 1 21.3175 -6.91354 0 
1090 1 22.4493 -6.9051 0 
1092 1 23.581 -6.89737 0 
1094 1 24.7129 -6.89018 0 
1096 2 25.8451 -6.88616 0 
1098 2 26.9784 -6.88422 0 
1100 2 28.1116 -6.88241 0 
1201 2 -27.9311 -5.68349 0 
1203 2 -26.806 -5.64742 0 