ITEM: TIMESTEP
300
ITEM: NUMBER OF ATOMS
2850
ITEM: BOX BOUNDS ff ff pp
-42.092 42.092
-42.092 42.092
-0.280613 0.280613
ITEM: ATOMS id type xu yu zu 
1 2 -27.3398 -28.9988 0 
3 2 -26.2107 -28.9642 0 
5 2 -25.0816 -28.9291 0 
7 2 -23.9525 -28.8936 0 
9 2 -22.8235 -28.8577 0 
11 2 -21.6944 -28.8213 0 
13 2 -20.5655 -28.7844 0 
15 2 -19.4366 -28.7472 0 
17 2 -18.3079 -28.7095 0 
19 2 -17.1793 -28.6715 0 
21 2 -16.0508 -28.6331 0 
23 2 -14.9226 -28.5944 0 
25 2 -13.7947 -28.5554 0 
27 2 -12.667 -28.5163 0 
29 2 -11.5396 -28.477 0 
31 2 -10.4126 -28.4376 0 
33 2 -9.28592 -28.3982 0 
35 2 -8.15967 -28.3589 0 
37 2 -7.03386 -28.3198 0 
39 2 -5.90848 -28.281 0 
2 2 -26.7941 -28.0086 0 
4 2 -25.6649 -27.9736 0 
6 2 -24.5357 -27.9381 0 
8 2 -23.4065 -27.902 0 
10 2 -22.2773 -27.8656 0 
12 2 -21.1481 -27.8286 0 
14 2 -20.019 -27.7912 0 
16 2 -18.89 -27.7533 0 
18 2 -17.7611 -27.715 0 
20 2 -16.6324 -27.6763 0 
22 2 -15.5039 -27.6373 0 
24 2 -14.3755 -27.5979 0 
26 2 -13.2475 -27.5582 0 
28 2 -12.1197 -27.5183 0 
30 2 -10.9923 -27.4783 0 
32 2 -9.86522 -27.4382 0 
34 2 -8.73856 -27.3981 0 
36 2 -7.61233 -27.3581 0 
38 2 -6.48656 -27.3184 0 
40 2 -5.36126 -27.2789 0 
41 2 -4.78357 -28.2426 0 
42 2 -4.23645 -27.24 0 
43 2 -3.65912 -28.2046 0 
44 2 -3.11213 -27.2015 0 
45 2 -2.53513 -28.1673 0 
46 2 -1.98828 -27.1638 0 
47 2 -1.41159 -28.1307 0 
48 2 -0.8649 -27.1269 0 
49 2 -0.288464 -28.095 0 
51 2 0.834263 -28.0602 0 
53 2 1.95663 -28.0264 0 
55 2 3.07869 -27.9937 0 
57 2 4.20048 -27.9622 0 
59 2 5.32207 -27.9319 0 
61 2 6.4435 -27.9029 0 
63 2 7.56483 -27.8752 0 
65 2 8.68613 -27.8488 0 
67 2 9.80743 -27.8237 0 
69 2 10.9288 -27.8 0 
71 2 12.0503 -27.7775 0 
73 2 13.1719 -27.7563 0 
75 2 14.2937 -27.7363 0 
77 2 15.4157 -27.7174 0 
79 2 16.538 -27.6997 0 
81 2 17.6605 -27.683 0 
83 2 18.7832 -27.6673 0 
85 2 19.9063 -27.6526 0 
87 2 21.0296 -27.6388 0 
89 2 22.1532 -27.6258 0 
91 2 23.2771 -27.6136 0 
93 2 24.4012 -27.6022 0 
95 2 25.5256 -27.5914 0 
97 2 26.6503 -27.5812 0 
99 2 27.7752 -27.5717 0 
101 2 -27.378 -27.0533 0 
103 2 -26.2487 -27.0183 0 
102 2 -26.833 -26.0633 0 
105 2 -25.1194 -26.9828 0 
104 2 -25.7037 -26.0278 0 
107 2 -23.9901 -26.9468 0 
106 2 -24.5742 -25.9918 0 
109 2 -22.8607 -26.9102 0 
108 1 -23.4451 -25.9555 0 
111 2 -21.7314 -26.8732 0 
113 2 -20.6021 -26.8357 0 
115 2 -19.4729 -26.7977 0 
117 2 -18.3437 -26.7591 0 
119 2 -17.2147 -26.7202 0 
121 2 -16.0858 -26.6808 0 
123 2 -14.9572 -26.641 0 
125 2 -13.8287 -26.6009 0 
127 2 -12.7006 -26.5605 0 
129 2 -11.5727 -26.5198 0 
131 2 -10.4452 -26.479 0 
133 2 -9.31813 -26.4382 0 
135 2 -8.19146 -26.3973 0 
137 2 -7.06526 -26.3566 0 
139 2 -5.93954 -26.3162 0 
141 2 -4.81433 -26.2762 0 
143 2 -3.68963 -26.2366 0 
145 2 -2.56545 -26.1977 0 
147 2 -1.44177 -26.1596 0 
50 2 0.258046 -27.0909 0 
149 2 -0.318563 -26.1224 0 
52 2 1.38059 -27.056 0 
151 2 0.804196 -26.0862 0 
54 2 2.50279 -27.0222 0 
153 2 1.92656 -26.0512 0 
56 2 3.62468 -26.9896 0 
155 2 3.04857 -26.0174 0 
58 2 4.74633 -26.9582 0 
157 2 4.1703 -25.9849 0 
60 2 5.86779 -26.9282 0 
159 2 5.2918 -25.9538 0 
62 2 6.98913 -26.8996 0 
64 2 8.11041 -26.8723 0 
66 2 9.23169 -26.8465 0 
68 2 10.353 -26.822 0 
70 2 11.4745 -26.7989 0 
72 2 12.596 -26.7771 0 
74 2 13.7178 -26.7566 0 
76 2 14.8398 -26.7373 0 
78 2 15.962 -26.7192 0 
80 2 17.0845 -26.7023 0 
82 2 18.2073 -26.6863 0 
84 2 19.3304 -26.6714 0 
86 2 20.4538 -26.6575 0 
88 2 21.5774 -26.6444 0 
90 2 22.7014 -26.6321 0 
92 2 23.8256 -26.6206 0 
94 2 24.9501 -26.6098 0 
96 2 26.0749 -26.5996 0 
98 2 27.2 -26.5901 0 
100 2 28.3253 -26.5811 0 
201 2 -27.4179 -25.1085 0 
203 2 -26.2885 -25.0731 0 
205 2 -25.159 -25.0372 0 
207 2 -24.0295 -25.0007 0 
209 1 -22.9005 -24.9639 0 
110 1 -22.3159 -25.9185 0 
211 1 -21.7714 -24.9262 0 
112 1 -21.1866 -25.8808 0 
213 1 -20.6422 -24.8877 0 
114 1 -20.0573 -25.8425 0 
215 1 -19.5128 -24.8486 0 
116 1 -18.9279 -25.8036 0 
217 1 -18.3833 -24.8088 0 
118 1 -17.7985 -25.7641 0 
120 1 -16.6692 -25.7241 0 
122 1 -15.5401 -25.6836 0 
124 1 -14.4113 -25.6427 0 
126 1 -13.2827 -25.6015 0 
128 1 -12.1544 -25.5601 0 
130 1 -11.0265 -25.5184 0 
132 1 -9.89896 -25.4767 0 
134 1 -8.77189 -25.4349 0 
136 1 -7.6453 -25.3933 0 
138 1 -6.51922 -25.3518 0 
140 1 -5.39369 -25.3106 0 
142 1 -4.26873 -25.2698 0 
144 1 -3.14433 -25.2296 0 
146 1 -2.02052 -25.1901 0 
148 1 -0.897272 -25.1515 0 
150 1 0.225416 -25.1137 0 
152 1 1.3476 -25.0771 0 
154 1 2.46936 -25.0419 0 
156 1 3.59082 -25.008 0 
158 1 4.7121 -24.9758 0 
160 1 5.83333 -24.9452 0 
161 2 6.41316 -25.9242 0 
162 1 6.95461 -24.9162 0 
163 2 7.53443 -25.896 0 
164 1 8.076 -24.889 0 
165 2 8.65568 -25.8693 0 
167 2 9.77697 -25.844 0 
166 1 9.19754 -24.8633 0 
169 2 10.8984 -25.8202 0 
168 1 10.3192 -24.8392 0 
171 2 12.0199 -25.7978 0 
170 1 11.4411 -24.8165 0 
173 2 13.1416 -25.7768 0 
172 1 12.5631 -24.7952 0 
175 2 14.2636 -25.7571 0 
177 2 15.3858 -25.7386 0 
179 2 16.5083 -25.7213 0 
181 2 17.6311 -25.7052 0 
183 2 18.7543 -25.6901 0 
185 2 19.8777 -25.6759 0 
187 2 21.0014 -25.6627 0 
189 2 22.1254 -25.6504 0 
191 2 23.2498 -25.6388 0 
193 2 24.3744 -25.628 0 
195 2 25.4993 -25.6179 0 
197 2 26.6245 -25.6084 0 
199 2 27.75 -25.5994 0 
202 2 -26.8739 -24.1187 0 
204 2 -25.7444 -24.0828 0 
206 2 -24.6148 -24.0464 0 
208 1 -23.4855 -24.0094 0 
210 1 -22.3565 -23.9717 0 
212 1 -21.2273 -23.9332 0 
214 1 -20.0979 -23.8939 0 
216 1 -18.9684 -23.8539 0 
219 1 -17.2538 -24.7683 0 
218 1 -17.8389 -23.8132 0 
221 1 -16.1245 -24.7272 0 
220 1 -16.7094 -23.7717 0 
222 1 -15.5799 -23.7297 0 
223 1 -14.9952 -24.6856 0 
224 1 -14.4507 -23.6871 0 
225 1 -13.8662 -24.6437 0 
226 1 -13.3216 -23.6442 0 
227 1 -12.7376 -24.6014 0 
229 1 -11.6092 -24.559 0 
231 1 -10.4812 -24.5163 0 
233 1 -9.35365 -24.4735 0 
235 1 -8.22657 -24.4308 0 
237 1 -7.10002 -24.3881 0 
239 1 -5.97404 -24.3457 0 
241 1 -4.84867 -24.3036 0 
243 1 -3.72392 -24.262 0 
245 1 -2.59979 -24.2211 0 
247 1 -1.47631 -24.181 0 
249 1 -0.353453 -24.1418 0 
251 1 0.768817 -24.1037 0 
253 1 1.89059 -24.067 0 
255 1 3.01199 -24.0318 0 
257 1 4.13317 -23.9983 0 
259 1 5.25426 -23.9667 0 
261 1 6.37541 -23.9369 0 
263 1 7.49673 -23.9089 0 
265 1 8.61829 -23.8827 0 
267 1 9.7401 -23.8581 0 
269 1 10.8621 -23.8351 0 
271 1 11.9844 -23.8135 0 
273 1 13.107 -23.7933 0 
174 1 13.6854 -24.7752 0 
275 1 14.2298 -23.7745 0 
176 1 14.8079 -24.7566 0 
277 1 15.3529 -23.7571 0 
178 1 15.9307 -24.7393 0 
279 1 16.4763 -23.7409 0 
180 1 17.0539 -24.7232 0 
281 1 17.6002 -23.726 0 
182 1 18.1775 -24.7082 0 
283 1 18.7243 -23.712 0 
184 1 19.3013 -24.6942 0 
285 1 19.8487 -23.699 0 
186 1 20.4254 -24.681 0 
287 1 20.9732 -23.6867 0 
188 1 21.5496 -24.6687 0 
289 1 22.098 -23.6751 0 
190 1 22.6741 -24.6571 0 
291 1 23.2228 -23.6643 0 
192 1 23.7988 -24.6463 0 
293 1 24.3478 -23.654 0 
194 1 24.9237 -24.636 0 
295 2 25.4729 -23.6443 0 
196 2 26.0488 -24.6264 0 
198 2 27.1745 -24.6176 0 
200 2 28.3003 -24.6093 0 
301 2 -27.4598 -23.1644 0 
303 2 -26.3303 -23.1287 0 
305 2 -25.2007 -23.0924 0 
307 2 -24.071 -23.0555 0 
309 1 -22.9417 -23.0173 0 
311 1 -21.8125 -22.9788 0 
313 1 -20.683 -22.9395 0 
315 1 -19.5535 -22.8993 0 
317 1 -18.424 -22.8585 0 
319 1 -17.2944 -22.8169 0 
321 1 -16.1649 -22.7747 0 
323 1 -15.0354 -22.7318 0 
325 1 -13.9061 -22.6884 0 
327 1 -12.777 -22.6445 0 
228 1 -12.1929 -23.601 0 
329 1 -11.6482 -22.6003 0 
230 1 -11.0645 -23.5574 0 
331 1 -10.5198 -22.5557 0 
232 1 -9.93646 -23.5137 0 
333 1 -9.39182 -22.5109 0 
234 1 -8.80892 -23.4699 0 
236 1 -7.68189 -23.426 0 
238 1 -6.55544 -23.3823 0 
240 1 -5.42961 -23.3388 0 
242 1 -4.30441 -23.2959 0 
244 1 -3.17986 -23.2535 0 
246 1 -2.056 -23.2118 0 
248 1 -0.932831 -23.1711 0 
250 1 0.189678 -23.1314 0 
252 1 1.31162 -23.0932 0 
254 1 2.43313 -23.0567 0 
256 1 3.55434 -23.0219 0 
258 1 4.67538 -22.9891 0 
260 1 5.79641 -22.9583 0 
262 1 6.91756 -22.9295 0 
264 1 8.03898 -22.9025 0 
266 1 9.16074 -22.8774 0 
268 1 10.2829 -22.8539 0 
270 1 11.4054 -22.8319 0 
272 1 12.5281 -22.8115 0 
274 1 13.6512 -22.7924 0 
276 1 14.7745 -22.7747 0 
278 1 15.8982 -22.7584 0 
280 1 17.0222 -22.7433 0 
282 1 18.1465 -22.7294 0 
284 1 19.2712 -22.7164 0 
286 1 20.3961 -22.7042 0 
288 1 21.5212 -22.6928 0 
290 1 22.6463 -22.682 0 
292 1 23.7716 -22.6718 0 
294 1 24.8971 -22.6622 0 
297 2 26.5987 -23.6355 0 
296 2 26.0228 -22.6533 0 
299 2 27.7248 -23.6273 0 
298 2 27.149 -22.6452 0 
300 2 28.2755 -22.6376 0 
302 2 -26.9167 -22.1747 0 
304 2 -25.7871 -22.1385 0 
306 2 -24.6574 -22.1018 0 
308 1 -23.5276 -22.0636 0 
310 1 -22.398 -22.0246 0 
312 1 -21.2684 -21.9853 0 
314 1 -20.1388 -21.9451 0 
316 1 -19.0092 -21.9042 0 
318 1 -17.8796 -21.8626 0 
320 1 -16.75 -21.8204 0 
322 1 -15.6204 -21.7773 0 
324 1 -14.4909 -21.7336 0 
326 1 -13.3614 -21.6893 0 
328 1 -12.2323 -21.6445 0 
330 1 -11.1035 -21.5993 0 
332 1 -9.97513 -21.5538 0 
334 1 -8.84728 -21.5081 0 
335 1 -8.26437 -22.4661 0 
336 1 -7.71998 -21.4623 0 
337 1 -7.13749 -22.4212 0 
338 1 -6.59327 -21.4166 0 
339 1 -6.01122 -22.3766 0 
340 1 -5.4672 -21.3711 0 
341 1 -4.88559 -22.3323 0 
342 1 -4.34184 -21.3259 0 
343 1 -3.76063 -22.2884 0 
345 1 -2.6364 -22.2452 0 
347 1 -1.51293 -22.2028 0 
349 1 -0.390196 -22.1615 0 
351 1 0.731927 -22.1215 0 
353 1 1.85359 -22.0833 0 
355 1 2.97491 -22.0471 0 
357 1 4.09601 -22.0129 0 
359 1 5.21702 -21.9808 0 
361 1 6.33809 -21.9508 0 
363 1 7.45937 -21.923 0 
365 1 8.58101 -21.8971 0 
367 1 9.70309 -21.873 0 
369 1 10.8256 -21.8506 0 
371 1 11.9486 -21.8297 0 
373 1 13.0719 -21.8103 0 
375 1 14.1955 -21.7923 0 
377 1 15.3194 -21.7757 0 
379 1 16.4435 -21.7604 0 
381 1 17.568 -21.7463 0 
383 1 18.6929 -21.7333 0 
385 1 19.8181 -21.7212 0 
387 1 20.9436 -21.7099 0 
389 1 22.0692 -21.6993 0 
391 1 23.1949 -21.6893 0 
393 1 24.3207 -21.6798 0 
395 2 25.4466 -21.6709 0 
397 2 26.573 -21.6629 0 
399 2 27.6998 -21.6554 0 
401 2 -27.5037 -21.2208 0 
403 2 -26.3741 -21.1849 0 
402 2 -26.9617 -20.2313 0 
405 2 -25.2445 -21.1483 0 
404 2 -25.8321 -20.1949 0 
407 2 -24.1147 -21.111 0 
409 1 -22.9843 -21.0711 0 
411 1 -21.8543 -21.0314 0 
413 1 -20.7245 -20.9913 0 
415 1 -19.5948 -20.9504 0 
417 1 -18.4651 -20.9087 0 
419 1 -17.3354 -20.8664 0 
421 1 -16.2058 -20.8234 0 
423 1 -15.0761 -20.7796 0 
425 1 -13.9464 -20.7351 0 
427 1 -12.8169 -20.6899 0 
429 1 -11.6877 -20.6442 0 
431 1 -10.5589 -20.5981 0 
433 1 -9.43063 -20.5517 0 
435 1 -8.30286 -20.5051 0 
437 1 -7.17565 -20.4583 0 
439 1 -6.0491 -20.4116 0 
441 1 -4.92337 -20.3649 0 
344 1 -3.2173 -21.2812 0 
443 1 -3.7986 -20.3185 0 
346 1 -2.09361 -21.2371 0 
445 1 -2.67482 -20.2727 0 
348 1 -0.970708 -21.194 0 
447 1 -1.55187 -20.2279 0 
350 1 0.15157 -21.1524 0 
449 1 -0.429483 -20.1846 0 
352 1 1.27339 -21.1125 0 
354 1 2.39486 -21.0745 0 
356 1 3.51608 -21.0386 0 
358 1 4.63714 -21.0049 0 
360 1 5.7582 -20.9735 0 
362 1 6.87941 -20.9444 0 
364 1 8.00093 -20.9175 0 
366 1 9.12288 -20.8926 0 
368 1 10.2454 -20.8695 0 
370 1 11.3684 -20.8481 0 
372 1 12.4918 -20.8283 0 
374 1 13.6157 -20.81 0 
376 1 14.7399 -20.793 0 
378 1 15.8642 -20.7774 0 
380 1 16.9889 -20.7631 0 
382 1 18.1139 -20.7499 0 
384 1 19.2394 -20.7378 0 
386 1 20.3652 -20.7266 0 
388 1 21.4913 -20.7161 0 
390 1 22.6176 -20.7063 0 
392 1 23.7439 -20.6971 0 
394 1 24.8703 -20.6884 0 
396 2 25.9969 -20.6804 0 
398 2 27.1238 -20.673 0 
400 2 28.251 -20.6661 0 
501 2 -27.5497 -19.2779 0 
503 2 -26.4202 -19.2417 0 
505 2 -25.2906 -19.2049 0 
406 2 -24.7023 -20.1579 0 
507 2 -24.1608 -19.1673 0 
408 1 -23.5715 -20.1185 0 
509 1 -23.029 -19.1257 0 
410 1 -22.441 -20.0781 0 
511 1 -21.8981 -19.0847 0 
412 1 -21.3108 -20.0378 0 
414 1 -20.1809 -19.997 0 
513 1 -20.7678 -19.0438 0 
416 1 -19.0511 -19.9554 0 
418 1 -17.9212 -19.913 0 
420 1 -16.7915 -19.8699 0 
422 1 -15.6616 -19.8261 0 
424 1 -14.5318 -19.7815 0 
426 1 -13.402 -19.7361 0 
428 1 -12.2724 -19.6901 0 
430 1 -11.1432 -19.6435 0 
432 1 -10.0143 -19.5965 0 
434 1 -8.88596 -19.5491 0 
436 1 -7.75814 -19.5013 0 
438 1 -6.63107 -19.4533 0 
440 1 -5.505 -19.4051 0 
442 1 -4.38014 -19.3569 0 
444 1 -3.25641 -19.3092 0 
446 1 -2.1335 -19.2627 0 
448 1 -1.01107 -19.2177 0 
450 1 0.111009 -19.1746 0 
451 1 0.692511 -20.1432 0 
452 1 1.23281 -19.1333 0 
453 1 1.81419 -20.1037 0 
454 1 2.35444 -19.0942 0 
455 1 2.93562 -20.0661 0 
456 1 3.47596 -19.0574 0 
457 1 4.05686 -20.0308 0 
458 1 4.59733 -19.0228 0 
459 1 5.178 -19.9977 0 
461 1 6.29917 -19.9672 0 
463 1 7.42057 -19.939 0 
465 1 8.54236 -19.9131 0 
467 1 9.66467 -19.8891 0 
469 1 10.7876 -19.8669 0 
471 1 11.911 -19.8465 0 
473 1 13.035 -19.8276 0 
475 1 14.1594 -19.8102 0 
477 1 15.2842 -19.7944 0 
479 1 16.4092 -19.7798 0 
481 1 17.5345 -19.7664 0 
483 1 18.6601 -19.7542 0 
485 1 19.7861 -19.7429 0 
487 1 20.9126 -19.7325 0 
489 1 22.0394 -19.7229 0 
491 1 23.1664 -19.714 0 
493 1 24.2934 -19.7056 0 
495 2 25.4205 -19.6978 0 
497 2 26.5477 -19.6905 0 
499 2 27.6751 -19.6838 0 
502 2 -27.0088 -18.2886 0 
504 2 -25.8793 -18.252 0 
506 2 -24.7497 -18.2147 0 
508 1 -23.6181 -18.1744 0 
510 1 -22.4866 -18.1325 0 
512 1 -21.3557 -18.091 0 
514 1 -20.2252 -18.0493 0 
515 1 -19.6377 -19.0022 0 
516 1 -19.0948 -18.007 0 
517 1 -18.5077 -18.9599 0 
518 1 -17.9645 -17.9639 0 
519 1 -17.3776 -18.9167 0 
520 1 -16.8341 -17.92 0 
521 1 -16.2476 -18.8729 0 
522 1 -15.7038 -17.8755 0 
523 1 -15.1176 -18.8283 0 
525 1 -13.9876 -18.783 0 
527 1 -12.8576 -18.7367 0 
529 1 -11.7278 -18.6898 0 
531 1 -10.5982 -18.6421 0 
533 1 -9.4691 -18.5939 0 
535 1 -8.34057 -18.5452 0 
537 1 -7.21298 -18.4959 0 
539 1 -6.08671 -18.4462 0 
541 1 -4.96188 -18.3965 0 
543 1 -3.83823 -18.3473 0 
545 1 -2.71525 -18.2992 0 
547 1 -1.59269 -18.2525 0 
549 1 -0.470519 -18.2074 0 
551 1 0.651327 -18.1639 0 
553 1 1.77301 -18.1226 0 
555 1 2.89455 -18.0837 0 
557 1 4.01597 -18.0474 0 
559 1 5.13735 -18.0138 0 
460 1 5.71859 -18.9907 0 
561 1 6.25877 -17.9833 0 
462 1 6.83991 -18.9613 0 
563 1 7.3803 -17.9555 0 
464 1 7.96154 -18.9344 0 
565 1 8.5022 -17.9302 0 
466 1 9.08365 -18.9095 0 
567 1 9.62472 -17.9068 0 
468 1 10.2064 -18.8865 0 
569 1 10.7479 -17.885 0 
470 1 11.3297 -18.8652 0 
472 1 12.4536 -18.8456 0 
474 1 13.5782 -18.8275 0 
476 1 14.7032 -18.8112 0 
478 1 15.8286 -18.7963 0 
480 1 16.9543 -18.7828 0 
482 1 18.0803 -18.7705 0 
484 1 19.2066 -18.7591 0 
486 1 20.3334 -18.7487 0 
488 1 21.4605 -18.7392 0 
490 1 22.5881 -18.7304 0 
492 1 23.7157 -18.7223 0 
494 1 24.8435 -18.7148 0 
496 2 25.9714 -18.7078 0 
498 2 27.0991 -18.7012 0 
500 2 28.2271 -18.6951 0 
601 2 -27.5979 -17.3354 0 
603 2 -26.4686 -17.2992 0 
605 2 -25.3391 -17.2621 0 
607 2 -24.2094 -17.2244 0 
609 1 -23.0767 -17.1814 0 
611 1 -21.9449 -17.139 0 
613 1 -20.8137 -17.0969 0 
615 1 -19.6828 -17.0546 0 
617 1 -18.5522 -17.0116 0 
619 1 -17.4215 -16.9678 0 
621 1 -16.2907 -16.9233 0 
524 1 -14.5735 -17.8302 0 
623 1 -15.1599 -16.878 0 
526 1 -13.4431 -17.7839 0 
625 1 -14.0289 -16.8316 0 
528 1 -12.3126 -17.7366 0 
627 1 -12.8978 -16.7841 0 
530 1 -11.1823 -17.6884 0 
629 1 -11.7667 -16.7356 0 
532 1 -10.0523 -17.6394 0 
534 1 -8.92307 -17.5898 0 
536 1 -7.79511 -17.5395 0 
538 1 -6.6688 -17.4885 0 
540 1 -5.54406 -17.4373 0 
542 1 -4.4203 -17.3866 0 
544 1 -3.297 -17.3371 0 
546 1 -2.17412 -17.2886 0 
548 1 -1.05169 -17.2413 0 
550 1 0.0704357 -17.1957 0 
552 1 1.19227 -17.1521 0 
554 1 2.31359 -17.1107 0 
556 1 3.43461 -17.072 0 
558 1 4.5558 -17.0366 0 
560 1 5.67726 -17.0043 0 
562 1 6.7988 -16.9753 0 
564 1 7.92048 -16.9496 0 
566 1 9.04266 -16.9264 0 
568 1 10.1656 -16.9048 0 
571 1 11.8718 -17.8645 0 
570 1 11.2895 -16.8843 0 
573 1 12.9963 -17.8455 0 
572 1 12.4141 -16.8647 0 
575 1 14.1214 -17.8283 0 
574 1 13.5392 -16.8464 0 
577 1 15.2471 -17.8128 0 
576 1 14.665 -16.8299 0 
579 1 16.3733 -17.799 0 
578 1 15.7914 -16.8153 0 
581 1 17.4998 -17.7866 0 
580 1 16.9184 -16.8026 0 
583 1 18.6266 -17.7753 0 
582 1 18.0459 -16.7913 0 
585 1 19.7537 -17.7649 0 
584 1 19.1736 -16.781 0 
587 1 20.8812 -17.7553 0 
586 1 20.3015 -16.7714 0 
589 1 22.0091 -17.7466 0 
588 1 21.4297 -16.7627 0 
591 1 23.1374 -17.7387 0 
590 1 22.5584 -16.7548 0 
593 1 24.2659 -17.7314 0 
592 1 23.6875 -16.7477 0 
595 2 25.3948 -17.725 0 
594 1 24.817 -16.7414 0 
596 2 25.9465 -16.7357 0 
597 2 26.5229 -17.7186 0 
598 2 27.0751 -16.7299 0 
599 2 27.6512 -17.7126 0 
600 2 28.2039 -16.7246 0 
602 2 -27.0583 -16.3463 0 
604 2 -25.929 -16.3096 0 
606 2 -24.7995 -16.2721 0 
608 1 -23.6677 -16.2313 0 
610 1 -22.5354 -16.1881 0 
612 1 -21.4035 -16.1453 0 
614 1 -20.272 -16.1027 0 
616 1 -19.1409 -16.0598 0 
618 1 -18.0099 -16.0164 0 
620 1 -16.8788 -15.972 0 
622 1 -15.7472 -15.9265 0 
624 1 -14.6155 -15.8799 0 
626 1 -13.4838 -15.8324 0 
628 1 -12.3522 -15.784 0 
630 1 -11.2213 -15.7346 0 
631 1 -10.636 -16.6863 0 
632 1 -10.0916 -15.6838 0 
633 1 -9.50635 -16.636 0 
634 1 -8.96356 -15.6313 0 
635 1 -8.37826 -16.5846 0 
636 1 -7.83708 -15.5774 0 
637 1 -7.25198 -16.5322 0 
639 1 -6.12704 -16.4795 0 
641 1 -5.00272 -16.4271 0 
643 1 -3.87876 -16.3754 0 
645 1 -2.75538 -16.3245 0 
647 1 -1.63247 -16.2748 0 
649 1 -0.509814 -16.2271 0 
651 1 0.612228 -16.1814 0 
653 1 1.73337 -16.1379 0 
655 1 2.85412 -16.0974 0 
657 1 3.97506 -16.0602 0 
659 1 5.0963 -16.026 0 
661 1 6.2178 -15.9947 0 
663 1 7.33943 -15.9672 0 
665 1 8.46115 -15.9434 0 
667 1 9.58343 -15.9226 0 
669 1 10.7068 -15.9033 0 
671 1 11.8313 -15.8844 0 
673 1 12.9567 -15.866 0 
675 1 14.0827 -15.8484 0 
677 1 15.2092 -15.8326 0 
679 1 16.3363 -15.8188 0 
681 1 17.4642 -15.8071 0 
683 1 18.5926 -15.7969 0 
685 1 19.7213 -15.7875 0 
687 1 20.8501 -15.7789 0 
689 1 21.9792 -15.7709 0 
691 1 23.1088 -15.7638 0 
693 1 24.239 -15.7576 0 
695 2 25.3699 -15.7527 0 
697 2 26.4989 -15.7471 0 
699 2 27.6281 -15.742 0 
701 2 -27.6483 -15.3934 0 
703 2 -26.5193 -15.357 0 
705 2 -25.3901 -15.3199 0 
707 2 -24.2607 -15.282 0 
709 1 -23.1275 -15.2383 0 
711 1 -21.9947 -15.1946 0 
713 1 -20.8626 -15.1516 0 
715 1 -19.731 -15.1087 0 
717 1 -18.5997 -15.0654 0 
719 1 -17.4681 -15.0213 0 
721 1 -16.336 -14.9758 0 
723 1 -15.2035 -14.9292 0 
725 1 -14.0713 -14.8817 0 
727 1 -12.9396 -14.8336 0 
729 1 -11.8088 -14.7842 0 
731 1 -10.6794 -14.7329 0 
733 1 -9.55132 -14.679 0 
735 1 -8.42427 -14.6232 0 
638 1 -6.71142 -15.5228 0 
737 1 -7.29747 -14.5666 0 
640 1 -5.58601 -15.4682 0 
739 1 -6.17085 -14.5098 0 
642 1 -4.46108 -15.414 0 
741 1 -5.04471 -14.4534 0 
644 1 -3.33677 -15.3604 0 
743 1 -3.91891 -14.3979 0 
646 1 -2.21282 -15.3083 0 
648 1 -1.08952 -15.2582 0 
650 1 0.0324044 -15.2097 0 
652 1 1.15333 -15.1638 0 
654 1 2.27425 -15.1216 0 
656 1 3.3953 -15.0832 0 
658 1 4.51629 -15.0478 0 
660 1 5.6377 -15.0153 0 
662 1 6.75961 -14.9854 0 
664 1 7.88146 -14.9591 0 
666 1 9.00316 -14.9372 0 
668 1 10.1254 -14.9189 0 
670 1 11.2489 -14.9021 0 
672 1 12.374 -14.8852 0 
674 1 13.5002 -14.8681 0 
676 1 14.627 -14.8514 0 
678 1 15.7542 -14.8363 0 
680 1 16.882 -14.8234 0 
682 1 18.0108 -14.8127 0 
684 1 19.1403 -14.8034 0 
686 1 20.27 -14.7951 0 
688 1 21.3997 -14.7872 0 
690 1 22.5297 -14.7801 0 
692 1 23.6601 -14.7737 0 
694 1 24.7913 -14.7687 0 
696 2 25.9226 -14.7642 0 
698 2 27.0521 -14.7592 0 
700 2 28.1818 -14.7547 0 
702 2 -27.11 -14.4044 0 
801 2 -27.7009 -13.4516 0 
704 2 -25.9811 -14.3676 0 
803 2 -26.5724 -13.4152 0 
706 2 -24.852 -14.3301 0 
805 2 -25.4437 -13.3781 0 
708 1 -23.72 -14.289 0 
807 2 -24.3146 -13.3401 0 
710 1 -22.5873 -14.245 0 
809 1 -23.1811 -13.296 0 
712 1 -21.4546 -14.2013 0 
714 1 -20.3226 -14.1583 0 
716 1 -19.1908 -14.1151 0 
718 1 -18.0587 -14.0712 0 
720 1 -16.9261 -14.0259 0 
722 1 -15.7932 -13.9795 0 
724 1 -14.6608 -13.9324 0 
726 1 -13.5291 -13.8844 0 
728 1 -12.3985 -13.8349 0 
730 1 -11.2691 -13.7826 0 
732 1 -10.1407 -13.7273 0 
734 1 -9.01267 -13.6698 0 
736 1 -7.88472 -13.6116 0 
738 1 -6.75695 -13.5534 0 
740 1 -5.62936 -13.4958 0 
742 1 -4.50212 -13.4393 0 
744 1 -3.37602 -13.3835 0 
745 1 -2.79359 -14.3441 0 
746 1 -2.25209 -13.3277 0 
747 1 -1.66969 -14.2914 0 
748 1 -1.1296 -13.2729 0 
749 1 -0.547704 -14.2396 0 
751 1 0.573458 -14.1906 0 
753 1 1.69471 -14.1456 0 
755 1 2.81581 -14.1041 0 
757 1 3.93661 -14.0669 0 
759 1 5.0577 -14.0342 0 
761 1 6.17962 -14.0045 0 
763 1 7.30234 -13.9765 0 
765 1 8.42504 -13.9515 0 
767 1 9.54705 -13.9313 0 
769 1 10.6692 -13.9155 0 
771 1 11.7927 -13.9013 0 
773 1 12.9181 -13.8865 0 
775 1 14.045 -13.8709 0 
777 1 15.1725 -13.8554 0 
779 1 16.3004 -13.8412 0 
781 1 17.429 -13.8291 0 
783 1 18.5585 -13.8193 0 
785 1 19.689 -13.811 0 
787 1 20.8198 -13.8035 0 
789 1 21.9506 -13.7965 0 
791 1 23.0815 -13.79 0 
793 1 24.2132 -13.7847 0 
795 2 25.3462 -13.7811 0 
797 2 26.4761 -13.7764 0 
799 2 27.6062 -13.772 0 
802 2 -27.164 -12.4626 0 
804 2 -26.0357 -12.4259 0 
806 2 -24.9071 -12.3884 0 
808 1 -23.7751 -12.3472 0 
810 1 -22.6424 -12.3032 0 
811 1 -22.0481 -13.252 0 
812 1 -21.5099 -12.2595 0 
813 1 -20.9156 -13.2085 0 
814 1 -20.3774 -12.2162 0 
815 1 -19.7835 -13.1654 0 
816 1 -19.2444 -12.1726 0 
817 1 -18.6508 -13.1216 0 
818 1 -18.1106 -12.128 0 
819 1 -17.5176 -13.0765 0 
821 1 -16.3844 -13.0306 0 
823 1 -15.252 -12.9841 0 
825 1 -14.1205 -12.9363 0 
827 1 -12.9898 -12.8862 0 
829 1 -11.8599 -12.8326 0 
831 1 -10.7307 -12.7759 0 
833 1 -9.60164 -12.7174 0 
835 1 -8.4726 -12.6585 0 
837 1 -7.3434 -12.5998 0 
839 1 -6.21444 -12.5418 0 
841 1 -5.08636 -12.4836 0 
843 1 -3.96054 -12.4249 0 
845 1 -2.83664 -12.3657 0 
847 1 -1.7135 -12.3077 0 
750 1 -0.00734135 -13.2208 0 
849 1 -0.590986 -12.2526 0 
851 1 0.531027 -12.201 0 
752 1 1.11446 -13.1721 0 
853 1 1.65273 -12.1532 0 
754 1 2.23553 -13.127 0 
855 1 2.77435 -12.1096 0 
756 1 3.35642 -13.086 0 
758 1 4.47739 -13.0504 0 
760 1 5.5984 -13.0203 0 
762 1 6.72062 -12.9937 0 
764 1 7.84464 -12.9683 0 
766 1 8.96891 -12.9447 0 
768 1 10.0922 -12.9261 0 
770 1 11.2148 -12.9125 0 
772 1 12.3385 -12.9008 0 
774 1 13.4641 -12.8882 0 
776 1 14.5914 -12.8743 0 
778 1 15.7196 -12.8601 0 
780 1 16.8481 -12.847 0 
782 1 17.9772 -12.836 0 
784 1 19.1076 -12.8271 0 
786 1 20.2391 -12.8197 0 
788 1 21.371 -12.8129 0 
790 1 22.5027 -12.8066 0 
792 1 23.6346 -12.801 0 
794 1 24.7672 -12.797 0 
796 2 25.9 -12.7934 0 
798 2 27.0306 -12.7893 0 
800 2 28.1612 -12.7854 0 
901 2 -27.7557 -11.5099 0 
903 2 -26.6279 -11.4735 0 
905 2 -25.4997 -11.4364 0 
907 2 -24.3713 -11.3985 0 
909 1 -23.2379 -11.3547 0 
911 1 -22.1052 -11.3111 0 
913 1 -20.9726 -11.2677 0 
915 1 -19.8393 -11.2241 0 
917 1 -18.7052 -11.1799 0 
820 1 -16.9771 -12.0825 0 
919 1 -17.5714 -11.135 0 
822 1 -15.8449 -12.0365 0 
921 1 -16.4393 -11.0894 0 
824 1 -14.7135 -11.9889 0 
923 1 -15.3081 -11.0419 0 
826 1 -13.5824 -11.9379 0 
925 1 -14.1765 -10.9904 0 
828 1 -12.4517 -11.8832 0 
927 1 -13.0449 -10.9349 0 
830 1 -11.3215 -11.8256 0 
832 1 -10.1915 -11.767 0 
834 1 -9.0611 -11.708 0 
836 1 -7.93055 -11.6494 0 
838 1 -6.80039 -11.5898 0 
840 1 -5.67209 -11.5289 0 
842 1 -4.54579 -11.4664 0 
844 1 -3.42083 -11.4036 0 
846 1 -2.29731 -11.3423 0 
848 1 -1.17497 -11.2834 0 
850 1 -0.0533264 -11.2288 0 
852 1 1.0684 -11.1787 0 
854 1 2.19044 -11.1328 0 
857 1 3.89587 -12.0696 0 
856 1 3.31246 -11.0912 0 
859 1 5.01682 -12.0344 0 
858 1 4.43482 -11.0533 0 
861 1 6.13779 -12.0066 0 
860 1 5.55704 -11.0203 0 
863 1 7.26003 -11.9835 0 
862 1 6.67798 -10.994 0 
865 1 8.38487 -11.9609 0 
864 1 7.79984 -10.9739 0 
867 1 9.51121 -11.9394 0 
869 1 10.6367 -11.9224 0 
871 1 11.7611 -11.9108 0 
873 1 12.8857 -11.901 0 
875 1 14.0118 -11.8904 0 
877 1 15.1396 -11.8781 0 
879 1 16.2684 -11.8655 0 
881 1 17.3974 -11.8538 0 
883 1 18.5271 -11.8438 0 
885 1 19.6582 -11.8359 0 
887 1 20.7907 -11.8292 0 
889 1 21.9237 -11.8232 0 
891 1 23.0565 -11.8176 0 
893 1 24.1897 -11.8131 0 
895 2 25.3239 -11.8103 0 
897 2 26.4549 -11.8064 0 
899 2 27.586 -11.8028 0 
902 2 -27.2202 -10.5209 0 
904 2 -26.0925 -10.4842 0 
906 2 -24.9646 -10.4468 0 
908 1 -23.8332 -10.4059 0 
910 1 -22.701 -10.3627 0 
912 1 -21.5686 -10.3195 0 
914 1 -20.4353 -10.2761 0 
916 1 -19.3011 -10.2322 0 
918 1 -18.1673 -10.1879 0 
920 1 -17.0353 -10.1427 0 
922 1 -15.9042 -10.0951 0 
924 1 -14.7721 -10.0436 0 
926 1 -13.6397 -9.98802 0 
928 1 -12.5085 -9.9309 0 
929 1 -11.9139 -10.8773 0 
930 1 -11.3781 -9.87307 0 
931 1 -10.7831 -10.819 0 
932 1 -10.2472 -9.81431 0 
933 1 -9.65194 -10.7605 0 
935 1 -8.52058 -10.7008 0 
937 1 -7.38977 -10.6392 0 
939 1 -6.26026 -10.5753 0 
941 1 -5.13184 -10.5097 0 
943 1 -4.00512 -10.4445 0 
945 1 -2.87976 -10.3798 0 
947 1 -1.75596 -10.3173 0 
949 1 -0.633258 -10.2575 0 
951 1 0.488209 -10.2015 0 
953 1 1.6079 -10.151 0 
955 1 2.72828 -10.1083 0 
957 1 3.85166 -10.0727 0 
959 1 4.97657 -10.0389 0 
961 1 6.10033 -10.0069 0 
963 1 7.22238 -9.98302 0 
965 1 8.34392 -9.96523 0 
866 1 8.92461 -10.9546 0 
967 1 9.46799 -9.94898 0 
868 1 10.052 -10.9357 0 
969 1 10.5949 -9.93306 0 
870 1 11.1797 -10.9209 0 
971 1 11.7234 -9.92101 0 
872 1 12.3066 -10.9108 0 
973 1 12.8521 -9.91282 0 
874 1 13.4332 -10.9026 0 
975 1 13.981 -9.90588 0 
876 1 14.5606 -10.8934 0 
977 1 15.1101 -9.89759 0 
878 1 15.6892 -10.8826 0 
979 1 16.24 -9.88808 0 
880 1 16.8187 -10.8716 0 
981 1 17.3704 -9.8786 0 
882 1 17.9483 -10.8614 0 
983 1 18.5007 -9.86992 0 
884 1 19.0785 -10.8526 0 
985 1 19.6316 -9.86239 0 
886 1 20.2104 -10.8456 0 
987 1 20.7645 -9.85617 0 
888 1 21.344 -10.8397 0 
890 1 22.478 -10.8343 0 
989 1 21.8991 -9.85093 0 
892 1 23.6118 -10.8297 0 
991 1 23.0341 -9.84639 0 
894 1 24.7457 -10.8265 0 
993 1 24.169 -9.84299 0 
896 2 25.8793 -10.8234 0 
995 2 25.3037 -9.84035 0 
898 2 27.0108 -10.8201 0 
997 2 26.4357 -9.83726 0 
900 2 28.1423 -10.817 0 
999 2 27.5677 -9.8344 0 
1001 2 -27.8125 -9.56805 0 
1003 2 -26.6854 -9.5318 0 
1005 2 -25.5581 -9.49477 0 
1007 2 -24.4305 -9.45693 0 
1009 1 -23.2977 -9.41407 0 
1011 1 -22.1653 -9.37145 0 
1013 1 -21.0324 -9.32847 0 
1015 1 -19.8984 -9.2849 0 
1017 1 -18.7646 -9.24083 0 
1019 1 -17.6328 -9.19608 0 
1021 1 -16.5017 -9.14883 0 
1023 1 -15.3692 -9.09753 0 
1025 1 -14.2366 -9.04258 0 
1027 1 -13.1062 -8.98561 0 
1029 1 -11.9773 -8.92819 0 
1031 1 -10.8459 -8.86853 0 
934 1 -9.11528 -9.75314 0 
1033 1 -9.71188 -8.80708 0 
936 1 -7.98336 -9.69013 0 
1035 1 -8.57784 -8.7433 0 
938 1 -6.85182 -9.62441 0 
1037 1 -7.44616 -8.67819 0 
940 1 -5.72225 -9.558 0 
1039 1 -6.31637 -8.61075 0 
942 1 -4.59362 -9.49089 0 
944 1 -3.46599 -9.42471 0 
946 1 -2.33885 -9.35816 0 
948 1 -1.21243 -9.29271 0 
950 1 -0.089927 -9.22831 0 
952 1 1.02676 -9.16713 0 
954 1 2.14348 -9.1197 0 
956 1 3.26451 -9.08543 0 
958 1 4.3888 -9.05488 0 
960 1 5.51599 -9.02464 0 
962 1 6.64381 -8.99618 0 
964 1 7.76836 -8.9733 0 
966 1 8.89169 -8.95838 0 
968 1 10.0157 -8.94416 0 
970 1 11.1423 -8.93153 0 
972 1 12.2707 -8.92231 0 
974 1 13.4 -8.91653 0 
976 1 14.5302 -8.91071 0 
978 1 15.6608 -8.90322 0 
980 1 16.792 -8.89466 0 
982 1 17.9234 -8.88661 0 
984 1 19.0546 -8.8794 0 
986 1 20.1864 -8.87297 0 
988 1 21.3203 -8.86751 0 
990 1 22.456 -8.86303 0 
992 1 23.5918 -8.85965 0 
994 1 24.7269 -8.85717 0 
996 2 25.8608 -8.85435 0 
998 2 26.9933 -8.85174 0 
1000 2 28.1257 -8.84931 0 
1002 2 -27.2783 -8.57905 0 
1101 2 -27.8711 -7.62598 0 
1004 2 -26.1516 -8.54247 0 
1103 2 -26.7449 -7.58983 0 
1006 2 -25.0246 -8.50509 0 
1105 2 -25.6186 -7.5529 0 
1008 1 -23.8941 -8.46504 0 
1107 2 -24.492 -7.51516 0 
1010 1 -22.7624 -8.42304 0 
1012 1 -21.6301 -8.38075 0 
1014 1 -20.4967 -8.33763 0 
1016 1 -19.3633 -8.29385 0 
1018 1 -18.2315 -8.24941 0 
1020 1 -17.1005 -8.20289 0 
1022 1 -15.9682 -8.15213 0 
1024 1 -14.836 -8.09766 0 
1026 1 -13.7067 -8.04102 0 
1028 1 -12.5779 -7.98346 0 
1030 1 -11.4445 -7.92431 0 
1032 1 -10.3077 -7.86284 0 
1034 1 -9.1738 -7.79987 0 
1036 1 -8.04316 -7.73468 0 
1038 1 -6.91259 -7.66645 0 
1041 1 -5.18713 -8.54305 0 
1040 1 -5.7831 -7.59638 0 
1043 1 -4.05852 -8.47344 0 
1042 1 -4.65437 -7.5229 0 
1045 1 -2.92989 -8.40268 0 
1044 1 -3.526 -7.45063 0 
1047 1 -1.80151 -8.33243 0 
1049 1 -0.6783 -8.25845 0 
1051 1 0.439295 -8.18508 0 
1053 1 1.55621 -8.12823 0 
1055 1 2.67298 -8.08987 0 
1057 1 3.79197 -8.06123 0 
1059 1 4.91809 -8.03897 0 
1061 1 6.04875 -8.01381 0 
1063 1 7.18044 -7.98717 0 
1065 1 8.31027 -7.96746 0 
1067 1 9.43734 -7.9534 0 
1069 1 10.5635 -7.94169 0 
1071 1 11.6913 -7.93132 0 
1073 1 12.8207 -7.92507 0 
1075 1 13.9509 -7.92127 0 
1077 1 15.082 -7.91678 0 
1079 1 16.2135 -7.91003 0 
1081 1 17.3455 -7.90239 0 
1083 1 18.4779 -7.89575 0 
1085 1 19.6101 -7.88983 0 
1087 1 20.7429 -7.88431 0 
1089 1 21.878 -7.87963 0 
1091 1 23.0147 -7.87621 0 
1093 1 24.151 -7.87395 0 
1095 2 25.2861 -7.87134 0 
1097 2 26.419 -7.86899 0 
1099 2 27.5519 -7.8668 0 
1102 2 -27.3381 -6.63684 0 
1104 2 -26.2124 -6.60035 0 
1106 2 -25.0865 -6.56307 0 
1108 1 -23.9575 -6.5243 0 
1109 1 -23.3603 -7.47412 0 
1110 1 -22.827 -6.48384 0 
1111 1 -22.2286 -7.43265 0 
1112 1 -21.6956 -6.44246 0 
1113 1 -21.096 -7.39026 0 
1114 1 -20.5632 -6.39976 0 
1115 1 -19.9629 -7.34688 0 
1116 1 -19.4315 -6.35614 0 
1117 1 -18.8311 -7.30282 0 
1119 1 -17.7004 -7.25703 0 
1121 1 -16.5689 -7.20721 0 
1123 1 -15.4373 -7.15295 0 
1125 1 -14.308 -7.09699 0 
1127 1 -13.1781 -7.03992 0 
1129 1 -12.0438 -6.98162 0 
1131 1 -10.9077 -6.92091 0 
1133 1 -9.77559 -6.85917 0 
1135 1 -8.64416 -6.79385 0 
1137 1 -7.5111 -6.72452 0 
1139 1 -6.38073 -6.64927 0 
1141 1 -5.25256 -6.57504 0 
1143 1 -4.1235 -6.50044 0 
1145 1 -2.99826 -6.42132 0 
1046 1 -2.39869 -7.37509 0 
1147 1 -1.87815 -6.32981 0 
1048 1 -1.27826 -7.29134 0 
1050 1 -0.160491 -7.20647 0 
1052 1 0.958444 -7.14136 0 
1054 1 2.07968 -7.09302 0 
1056 1 3.19821 -7.05885 0 
1058 1 4.31944 -7.04119 0 
1060 1 5.44613 -7.02481 0 
1062 1 6.57989 -7.00491 0 
1064 1 7.71533 -6.98171 0 
1066 1 8.84979 -6.96424 0 
1068 1 9.98104 -6.95191 0 
1070 1 11.1101 -6.94174 0 
1072 1 12.2399 -6.93374 0 
1074 1 13.3711 -6.92969 0 
1076 1 14.503 -6.92737 0 
1078 1 15.6358 -6.92397 0 
1080 1 16.7682 -6.91775 0 
1082 1 17.9009 -6.91125 0 
1084 1 19.0341 -6.90598 0 
1086 1 20.1672 -6.9011 0 
1088 1 21.3013 -6.89641 0 
1090 1 22.4376 -6.89272 0 
1092 1 23.5748 -6.89055 0 
1094 1 24.7109 -6.88864 0 
1096 2 25.8451 -6.88616 0 
1098 2 26.9784 -6.88422 0 
1100 2 28.1116 -6.88241 0 