ITEM: TIMESTEP
100
ITEM: NUMBER OF ATOMS
2850
ITEM: BOX BOUNDS ff ff pp
-42.092 42.092
-42.092 42.092
-0.280613 0.280613
ITEM: ATOMS id type xu yu zu 
1 2 -27.3398 -28.9988 0 
3 2 -26.2107 -28.9642 0 
5 2 -25.0816 -28.9291 0 
7 2 -23.9525 -28.8936 0 
9 2 -22.8235 -28.8577 0 
11 2 -21.6944 -28.8213 0 
13 2 -20.5655 -28.7844 0 
15 2 -19.4366 -28.7472 0 
17 2 -18.3079 -28.7095 0 
19 2 -17.1793 -28.6715 0 
21 2 -16.0508 -28.6331 0 
23 2 -14.9226 -28.5944 0 
25 2 -13.7947 -28.5554 0 
27 2 -12.667 -28.5163 0 
29 2 -11.5396 -28.477 0 
31 2 -10.4126 -28.4376 0 
33 2 -9.28592 -28.3982 0 
35 2 -8.15967 -28.3589 0 
37 2 -7.03386 -28.3198 0 
39 2 -5.90848 -28.281 0 
2 2 -26.7941 -28.0086 0 
4 2 -25.6649 -27.9736 0 
6 2 -24.5357 -27.9381 0 
8 2 -23.4065 -27.902 0 
10 2 -22.2773 -27.8656 0 
12 2 -21.1481 -27.8286 0 
14 2 -20.019 -27.7912 0 
16 2 -18.89 -27.7533 0 
18 2 -17.7611 -27.715 0 
20 2 -16.6324 -27.6763 0 
22 2 -15.5039 -27.6373 0 
24 2 -14.3755 -27.5979 0 
26 2 -13.2475 -27.5582 0 
28 2 -12.1197 -27.5183 0 
30 2 -10.9923 -27.4783 0 
32 2 -9.86522 -27.4382 0 
34 2 -8.73856 -27.3981 0 
36 2 -7.61233 -27.3581 0 
38 2 -6.48656 -27.3184 0 
40 2 -5.36126 -27.2789 0 
41 2 -4.78357 -28.2426 0 
42 2 -4.23645 -27.24 0 
43 2 -3.65912 -28.2046 0 
44 2 -3.11213 -27.2015 0 
45 2 -2.53513 -28.1673 0 
46 2 -1.98828 -27.1638 0 
47 2 -1.41159 -28.1307 0 
48 2 -0.8649 -27.1269 0 
49 2 -0.288464 -28.095 0 
51 2 0.834263 -28.0602 0 
53 2 1.95663 -28.0264 0 
55 2 3.07869 -27.9937 0 
57 2 4.20048 -27.9622 0 
59 2 5.32207 -27.9319 0 
61 2 6.4435 -27.9029 0 
63 2 7.56483 -27.8752 0 
65 2 8.68613 -27.8488 0 
67 2 9.80743 -27.8237 0 
69 2 10.9288 -27.8 0 
71 2 12.0503 -27.7775 0 
73 2 13.1719 -27.7563 0 
75 2 14.2937 -27.7363 0 
77 2 15.4157 -27.7174 0 
79 2 16.538 -27.6997 0 
81 2 17.6605 -27.683 0 
83 2 18.7832 -27.6673 0 
85 2 19.9063 -27.6526 0 
87 2 21.0296 -27.6388 0 
89 2 22.1532 -27.6258 0 
91 2 23.2771 -27.6136 0 
93 2 24.4012 -27.6022 0 
95 2 25.5256 -27.5914 0 
97 2 26.6503 -27.5812 0 
99 2 27.7752 -27.5717 0 
101 2 -27.378 -27.0533 0 
103 2 -26.2487 -27.0183 0 
102 2 -26.833 -26.0633 0 
105 2 -25.1194 -26.9828 0 
104 2 -25.7037 -26.0278 0 
107 2 -23.9901 -26.9468 0 
106 2 -24.5742 -25.9918 0 
109 2 -22.8607 -26.9102 0 
108 1 -23.4447 -25.9552 0 
111 2 -21.7314 -26.8732 0 
113 2 -20.6021 -26.8357 0 
115 2 -19.4729 -26.7977 0 
117 2 -18.3437 -26.7591 0 
119 2 -17.2147 -26.7202 0 
121 2 -16.0858 -26.6808 0 
123 2 -14.9572 -26.641 0 
125 2 -13.8287 -26.6009 0 
127 2 -12.7006 -26.5605 0 
129 2 -11.5727 -26.5198 0 
131 2 -10.4452 -26.479 0 
133 2 -9.31813 -26.4382 0 
135 2 -8.19146 -26.3973 0 
137 2 -7.06526 -26.3566 0 
139 2 -5.93954 -26.3162 0 
141 2 -4.81433 -26.2762 0 
143 2 -3.68963 -26.2366 0 
145 2 -2.56545 -26.1977 0 
147 2 -1.44177 -26.1596 0 
50 2 0.258046 -27.0909 0 
149 2 -0.318563 -26.1224 0 
52 2 1.38059 -27.056 0 
151 2 0.804196 -26.0862 0 
54 2 2.50279 -27.0222 0 
153 2 1.92656 -26.0512 0 
56 2 3.62468 -26.9896 0 
155 2 3.04857 -26.0174 0 
58 2 4.74633 -26.9582 0 
157 2 4.1703 -25.9849 0 
60 2 5.86779 -26.9282 0 
159 2 5.2918 -25.9538 0 
62 2 6.98913 -26.8996 0 
64 2 8.11041 -26.8723 0 
66 2 9.23169 -26.8465 0 
68 2 10.353 -26.822 0 
70 2 11.4745 -26.7989 0 
72 2 12.596 -26.7771 0 
74 2 13.7178 -26.7566 0 
76 2 14.8398 -26.7373 0 
78 2 15.962 -26.7192 0 
80 2 17.0845 -26.7023 0 
82 2 18.2073 -26.6863 0 
84 2 19.3304 -26.6714 0 
86 2 20.4538 -26.6575 0 
88 2 21.5774 -26.6444 0 
90 2 22.7014 -26.6321 0 
92 2 23.8256 -26.6206 0 
94 2 24.9501 -26.6098 0 
96 2 26.0749 -26.5996 0 
98 2 27.2 -26.5901 0 
100 2 28.3253 -26.5811 0 
201 2 -27.4179 -25.1085 0 
203 2 -26.2885 -25.0731 0 
205 2 -25.159 -25.0372 0 
207 2 -24.0295 -25.0007 0 
209 1 -22.8997 -24.9634 0 
110 1 -22.3152 -25.918 0 
211 1 -21.77 -24.9256 0 
112 1 -21.1857 -25.8804 0 
213 1 -20.6404 -24.8873 0 
114 1 -20.0563 -25.8422 0 
215 1 -19.5108 -24.8484 0 
116 1 -18.9269 -25.8035 0 
217 1 -18.3814 -24.8091 0 
118 1 -17.7977 -25.7643 0 
120 1 -16.6686 -25.7247 0 
122 1 -15.5397 -25.6847 0 
124 1 -14.411 -25.6442 0 
126 1 -13.2825 -25.6034 0 
128 1 -12.1544 -25.5623 0 
130 1 -11.0266 -25.5209 0 
132 1 -9.89913 -25.4795 0 
134 1 -8.77212 -25.4379 0 
136 1 -7.64555 -25.3965 0 
138 1 -6.51945 -25.3551 0 
140 1 -5.39385 -25.3141 0 
142 1 -4.26876 -25.2734 0 
144 1 -3.14418 -25.2333 0 
146 1 -2.02013 -25.1939 0 
148 1 -0.896579 -25.1553 0 
150 1 0.226482 -25.1177 0 
152 1 1.3491 -25.0812 0 
154 1 2.47131 -25.046 0 
156 1 3.59319 -25.0121 0 
158 1 4.7148 -24.9797 0 
160 1 5.83624 -24.9489 0 
161 2 6.41316 -25.9242 0 
162 1 6.95757 -24.9196 0 
163 2 7.53443 -25.896 0 
164 1 8.07887 -24.8919 0 
165 2 8.65568 -25.8693 0 
167 2 9.77697 -25.844 0 
166 1 9.20022 -24.8659 0 
169 2 10.8984 -25.8202 0 
168 1 10.3217 -24.8414 0 
171 2 12.0199 -25.7978 0 
170 1 11.4433 -24.8184 0 
173 2 13.1416 -25.7768 0 
172 1 12.5651 -24.7969 0 
175 2 14.2636 -25.7571 0 
177 2 15.3858 -25.7386 0 
179 2 16.5083 -25.7213 0 
181 2 17.6311 -25.7052 0 
183 2 18.7543 -25.6901 0 
185 2 19.8777 -25.6759 0 
187 2 21.0014 -25.6627 0 
189 2 22.1254 -25.6504 0 
191 2 23.2498 -25.6388 0 
193 2 24.3744 -25.628 0 
195 2 25.4993 -25.6179 0 
197 2 26.6245 -25.6084 0 
199 2 27.75 -25.5994 0 
202 2 -26.8739 -24.1187 0 
204 2 -25.7444 -24.0828 0 
206 2 -24.6148 -24.0464 0 
208 1 -23.485 -24.0092 0 
210 1 -22.3551 -23.9713 0 
212 1 -21.2253 -23.9329 0 
214 1 -20.0955 -23.8939 0 
216 1 -18.9658 -23.8543 0 
219 1 -17.252 -24.7692 0 
218 1 -17.8362 -23.8143 0 
221 1 -16.1228 -24.7289 0 
220 1 -16.7067 -23.7737 0 
222 1 -15.5774 -23.7327 0 
223 1 -14.9938 -24.6881 0 
224 1 -14.4483 -23.6911 0 
225 1 -13.865 -24.6469 0 
226 1 -13.3194 -23.6492 0 
227 1 -12.7366 -24.6054 0 
229 1 -11.6084 -24.5635 0 
231 1 -10.4806 -24.5215 0 
233 1 -9.35321 -24.4793 0 
235 1 -8.22626 -24.437 0 
237 1 -7.09978 -24.3949 0 
239 1 -5.9738 -24.3529 0 
241 1 -4.84833 -24.3112 0 
243 1 -3.72338 -24.2699 0 
245 1 -2.59896 -24.2292 0 
247 1 -1.47507 -24.1892 0 
249 1 -0.351704 -24.1501 0 
251 1 0.771178 -24.1121 0 
253 1 1.89362 -24.0754 0 
255 1 3.01568 -24.04 0 
257 1 4.13743 -24.0062 0 
259 1 5.25897 -23.974 0 
261 1 6.38038 -23.9435 0 
263 1 7.50176 -23.9148 0 
265 1 8.62317 -23.8878 0 
267 1 9.74469 -23.8625 0 
269 1 10.8664 -23.8389 0 
271 1 11.9883 -23.8168 0 
273 1 13.1104 -23.7963 0 
174 1 13.6872 -24.7768 0 
275 1 14.2328 -23.7771 0 
176 1 14.8095 -24.758 0 
277 1 15.3554 -23.7593 0 
178 1 15.9321 -24.7404 0 
279 1 16.4784 -23.7427 0 
180 1 17.0549 -24.724 0 
281 1 17.6017 -23.7272 0 
182 1 18.1781 -24.7087 0 
283 1 18.7253 -23.7128 0 
184 1 19.3016 -24.6945 0 
285 1 19.8492 -23.6994 0 
186 1 20.4254 -24.6812 0 
287 1 20.9734 -23.6869 0 
188 1 21.5496 -24.6687 0 
289 1 22.0979 -23.6752 0 
190 1 22.674 -24.6571 0 
291 1 23.2227 -23.6643 0 
192 1 23.7987 -24.6462 0 
293 1 24.3477 -23.654 0 
194 1 24.9237 -24.636 0 
295 2 25.4729 -23.6443 0 
196 2 26.0488 -24.6264 0 
198 2 27.1745 -24.6176 0 
200 2 28.3003 -24.6093 0 
301 2 -27.4598 -23.1644 0 
303 2 -26.3303 -23.1287 0 
305 2 -25.2007 -23.0924 0 
307 2 -24.071 -23.0555 0 
309 1 -22.9409 -23.0175 0 
311 1 -21.811 -22.979 0 
313 1 -20.681 -22.9399 0 
315 1 -19.5511 -22.9002 0 
317 1 -18.4212 -22.86 0 
319 1 -17.2914 -22.8192 0 
321 1 -16.1618 -22.7779 0 
323 1 -15.0323 -22.7361 0 
325 1 -13.903 -22.6937 0 
327 1 -12.7741 -22.6509 0 
228 1 -12.1908 -23.6068 0 
329 1 -11.6454 -22.6078 0 
230 1 -11.0627 -23.5642 0 
331 1 -10.5172 -22.5643 0 
232 1 -9.93486 -23.5214 0 
333 1 -9.38941 -22.5206 0 
234 1 -8.80751 -23.4784 0 
236 1 -7.68062 -23.4354 0 
238 1 -6.55424 -23.3925 0 
240 1 -5.42837 -23.3497 0 
242 1 -4.30304 -23.3073 0 
244 1 -3.17826 -23.2654 0 
246 1 -2.05402 -23.224 0 
248 1 -0.930333 -23.1835 0 
250 1 0.192835 -23.1439 0 
252 1 1.31552 -23.1056 0 
254 1 2.43778 -23.0686 0 
256 1 3.55969 -23.0332 0 
258 1 4.68135 -22.9996 0 
260 1 5.80286 -22.9678 0 
262 1 6.9243 -22.9379 0 
264 1 8.04577 -22.9099 0 
266 1 9.16735 -22.8837 0 
268 1 10.2891 -22.8594 0 
270 1 11.411 -22.8367 0 
272 1 12.5332 -22.8156 0 
274 1 13.6557 -22.7961 0 
276 1 14.7785 -22.7779 0 
278 1 15.9015 -22.7611 0 
280 1 17.0249 -22.7454 0 
282 1 18.1486 -22.7309 0 
284 1 19.2726 -22.7174 0 
286 1 20.3969 -22.7048 0 
288 1 21.5215 -22.6931 0 
290 1 22.6464 -22.6822 0 
292 1 23.7716 -22.6719 0 
294 1 24.8971 -22.6623 0 
297 2 26.5987 -23.6355 0 
296 2 26.0228 -22.6533 0 
299 2 27.7248 -23.6273 0 
298 2 27.149 -22.6452 0 
300 2 28.2755 -22.6376 0 
302 2 -26.9167 -22.1747 0 
304 2 -25.7871 -22.1385 0 
306 2 -24.6574 -22.1018 0 
308 1 -23.5274 -22.0641 0 
310 1 -22.3974 -22.0255 0 
312 1 -21.2672 -21.9864 0 
314 1 -20.1371 -21.9466 0 
316 1 -19.0071 -21.9063 0 
318 1 -17.877 -21.8654 0 
320 1 -16.747 -21.8239 0 
322 1 -15.6172 -21.7818 0 
324 1 -14.4875 -21.7391 0 
326 1 -13.3581 -21.6959 0 
328 1 -12.2291 -21.6522 0 
330 1 -11.1004 -21.6081 0 
332 1 -9.97208 -21.5637 0 
334 1 -8.84428 -21.5192 0 
335 1 -8.26209 -22.4768 0 
336 1 -7.71698 -21.4745 0 
337 1 -7.13527 -22.433 0 
338 1 -6.59023 -21.4297 0 
339 1 -6.00899 -22.3893 0 
340 1 -5.46405 -21.3851 0 
341 1 -4.88325 -22.3457 0 
342 1 -4.33844 -21.3407 0 
343 1 -3.75807 -22.3025 0 
345 1 -2.63347 -22.2599 0 
347 1 -1.50943 -22.2178 0 
349 1 -0.385955 -22.1767 0 
351 1 0.736999 -22.1367 0 
353 1 1.85948 -22.0981 0 
355 1 2.98157 -22.061 0 
357 1 4.10336 -22.0258 0 
359 1 5.22496 -21.9925 0 
361 1 6.34647 -21.9613 0 
363 1 7.46801 -21.9321 0 
365 1 8.58964 -21.905 0 
367 1 9.71144 -21.8798 0 
369 1 10.8335 -21.8565 0 
371 1 11.9557 -21.8349 0 
373 1 13.0783 -21.8149 0 
375 1 14.2011 -21.7964 0 
377 1 15.3243 -21.7792 0 
379 1 16.4478 -21.7634 0 
381 1 17.5715 -21.7487 0 
383 1 18.6957 -21.7351 0 
385 1 19.8201 -21.7225 0 
387 1 20.9449 -21.7108 0 
389 1 22.0699 -21.6998 0 
391 1 23.1952 -21.6896 0 
393 1 24.3208 -21.68 0 
395 2 25.4466 -21.6709 0 
397 2 26.573 -21.6629 0 
399 2 27.6998 -21.6554 0 
401 2 -27.5037 -21.2208 0 
403 2 -26.3741 -21.1849 0 
402 2 -26.9617 -20.2313 0 
405 2 -25.2445 -21.1483 0 
404 2 -25.8321 -20.1949 0 
407 2 -24.1147 -21.111 0 
409 1 -22.9845 -21.0725 0 
411 1 -21.8543 -21.0333 0 
413 1 -20.724 -20.9935 0 
415 1 -19.5938 -20.9531 0 
417 1 -18.4635 -20.9121 0 
419 1 -17.3333 -20.8704 0 
421 1 -16.2031 -20.8281 0 
423 1 -15.073 -20.7852 0 
425 1 -13.9432 -20.7416 0 
427 1 -12.8137 -20.6975 0 
429 1 -11.6845 -20.6529 0 
431 1 -10.5557 -20.6078 0 
433 1 -9.42733 -20.5625 0 
435 1 -8.29951 -20.5169 0 
437 1 -7.17224 -20.4712 0 
439 1 -6.04555 -20.4255 0 
441 1 -4.91945 -20.3799 0 
344 1 -3.21342 -21.2967 0 
443 1 -3.79396 -20.3346 0 
346 1 -2.089 -21.2532 0 
445 1 -2.66909 -20.2897 0 
348 1 -0.965163 -21.2105 0 
447 1 -1.54485 -20.2454 0 
350 1 0.158101 -21.1689 0 
449 1 -0.421215 -20.202 0 
352 1 1.28084 -21.1284 0 
354 1 2.40313 -21.0896 0 
356 1 3.52506 -21.0526 0 
358 1 4.64674 -21.0177 0 
360 1 5.76832 -20.985 0 
362 1 6.88989 -20.9545 0 
364 1 8.01155 -20.9263 0 
366 1 9.1334 -20.9002 0 
368 1 10.2555 -20.8761 0 
370 1 11.3778 -20.8539 0 
372 1 12.5004 -20.8334 0 
374 1 13.6234 -20.8146 0 
376 1 14.7466 -20.7971 0 
378 1 15.8702 -20.7811 0 
380 1 16.9941 -20.7663 0 
382 1 18.1184 -20.7526 0 
384 1 19.243 -20.7399 0 
386 1 20.3679 -20.7282 0 
388 1 21.4931 -20.7172 0 
390 1 22.6186 -20.7071 0 
392 1 23.7444 -20.6975 0 
394 1 24.8705 -20.6886 0 
396 2 25.9969 -20.6804 0 
398 2 27.1238 -20.673 0 
400 2 28.251 -20.6661 0 
501 2 -27.5497 -19.2779 0 
503 2 -26.4202 -19.2417 0 
505 2 -25.2906 -19.2049 0 
406 2 -24.7023 -20.1579 0 
507 2 -24.1608 -19.1673 0 
408 1 -23.5723 -20.1198 0 
509 1 -23.0305 -19.1283 0 
410 1 -22.442 -20.0807 0 
511 1 -21.9002 -19.0887 0 
412 1 -21.3117 -20.0409 0 
414 1 -20.1813 -20.0005 0 
513 1 -20.7698 -19.0483 0 
416 1 -19.0509 -19.9594 0 
418 1 -17.9204 -19.9177 0 
420 1 -16.79 -19.8752 0 
422 1 -15.6596 -19.8321 0 
424 1 -14.5294 -19.7882 0 
426 1 -13.3994 -19.7437 0 
428 1 -12.2696 -19.6985 0 
430 1 -11.1403 -19.6529 0 
432 1 -10.0114 -19.6068 0 
434 1 -8.88302 -19.5604 0 
436 1 -7.75518 -19.5138 0 
438 1 -6.62793 -19.4671 0 
440 1 -5.50129 -19.4203 0 
442 1 -4.37528 -19.3737 0 
444 1 -3.2499 -19.3274 0 
446 1 -2.12518 -19.2815 0 
448 1 -1.00111 -19.2364 0 
450 1 0.122309 -19.1923 0 
451 1 0.701833 -20.1598 0 
452 1 1.24513 -19.1496 0 
453 1 1.82436 -20.1191 0 
454 1 2.36743 -19.1087 0 
455 1 2.94645 -20.0802 0 
456 1 3.48933 -19.07 0 
457 1 4.06823 -20.0435 0 
458 1 4.61099 -19.0337 0 
459 1 5.18984 -20.0091 0 
461 1 6.31143 -19.9772 0 
463 1 7.4331 -19.9477 0 
465 1 8.55496 -19.9206 0 
467 1 9.67706 -19.8957 0 
469 1 10.7995 -19.8728 0 
471 1 11.9222 -19.8518 0 
473 1 13.0452 -19.8325 0 
475 1 14.1686 -19.8148 0 
477 1 15.2923 -19.7985 0 
479 1 16.4163 -19.7835 0 
481 1 17.5407 -19.7697 0 
483 1 18.6655 -19.757 0 
485 1 19.7905 -19.7453 0 
487 1 20.916 -19.7344 0 
489 1 22.0417 -19.7243 0 
491 1 23.1677 -19.7149 0 
493 1 24.294 -19.7061 0 
495 2 25.4205 -19.6978 0 
497 2 26.5477 -19.6905 0 
499 2 27.6751 -19.6838 0 
502 2 -27.0088 -18.2886 0 
504 2 -25.8793 -18.252 0 
506 2 -24.7497 -18.2147 0 
508 1 -23.6196 -18.1763 0 
510 1 -22.4894 -18.1367 0 
512 1 -21.359 -18.0965 0 
514 1 -20.2284 -18.0555 0 
515 1 -19.6392 -19.0072 0 
516 1 -19.0977 -18.0138 0 
517 1 -18.5086 -18.9655 0 
518 1 -17.9669 -17.9713 0 
519 1 -17.3779 -18.923 0 
520 1 -16.836 -17.928 0 
521 1 -16.2472 -18.8797 0 
522 1 -15.7051 -17.8838 0 
523 1 -15.1167 -18.8356 0 
525 1 -13.9862 -18.7908 0 
527 1 -12.856 -18.7452 0 
529 1 -11.7261 -18.699 0 
531 1 -10.5966 -18.6523 0 
533 1 -9.46765 -18.6051 0 
535 1 -8.33921 -18.5576 0 
537 1 -7.21136 -18.5098 0 
539 1 -6.08413 -18.4619 0 
541 1 -4.95754 -18.414 0 
543 1 -3.83161 -18.3663 0 
545 1 -2.70635 -18.3189 0 
547 1 -1.58178 -18.272 0 
549 1 -0.457907 -18.226 0 
551 1 0.665294 -18.1813 0 
553 1 1.78788 -18.1382 0 
555 1 2.90995 -18.0973 0 
557 1 4.03169 -18.0589 0 
559 1 5.15328 -18.0234 0 
460 1 5.73258 -19.0001 0 
561 1 6.27491 -17.9909 0 
462 1 6.85424 -18.9692 0 
563 1 7.39673 -17.9613 0 
464 1 7.97609 -18.9409 0 
565 1 8.51885 -17.9344 0 
466 1 9.0982 -18.9151 0 
567 1 9.64132 -17.91 0 
468 1 10.2206 -18.8915 0 
569 1 10.7642 -17.8878 0 
470 1 11.3434 -18.8699 0 
472 1 12.4665 -18.8502 0 
474 1 13.59 -18.8322 0 
476 1 14.7139 -18.8157 0 
478 1 15.8381 -18.8005 0 
480 1 16.9626 -18.7866 0 
482 1 18.0876 -18.7739 0 
484 1 19.2128 -18.7622 0 
486 1 20.3385 -18.7514 0 
488 1 21.4645 -18.7413 0 
490 1 22.5907 -18.732 0 
492 1 23.7173 -18.7233 0 
494 1 24.8442 -18.7152 0 
496 2 25.9714 -18.7078 0 
498 2 27.0991 -18.7012 0 
500 2 28.2271 -18.6951 0 
601 2 -27.5979 -17.3354 0 
603 2 -26.4686 -17.2992 0 
605 2 -25.3391 -17.2621 0 
607 2 -24.2094 -17.2244 0 
609 1 -23.0792 -17.185 0 
611 1 -21.9489 -17.145 0 
613 1 -20.8184 -17.1041 0 
615 1 -19.6877 -17.0625 0 
617 1 -18.5568 -17.0201 0 
619 1 -17.4258 -16.9769 0 
621 1 -16.2947 -16.9327 0 
524 1 -14.5743 -17.8387 0 
623 1 -15.1636 -16.8875 0 
526 1 -13.4436 -17.7929 0 
625 1 -14.0325 -16.8414 0 
528 1 -12.3132 -17.7462 0 
627 1 -12.9016 -16.7944 0 
530 1 -11.1831 -17.6989 0 
629 1 -11.771 -16.7466 0 
532 1 -10.0535 -17.6509 0 
534 1 -8.92445 -17.6025 0 
536 1 -7.79596 -17.5538 0 
538 1 -6.6681 -17.5048 0 
540 1 -5.54089 -17.4556 0 
542 1 -4.41436 -17.4065 0 
544 1 -3.28851 -17.3576 0 
546 1 -2.16338 -17.309 0 
548 1 -1.03897 -17.2611 0 
550 1 0.0846942 -17.2142 0 
552 1 1.20765 -17.1689 0 
554 1 2.32998 -17.1256 0 
556 1 3.45185 -17.0849 0 
558 1 4.57347 -17.0472 0 
560 1 5.69507 -17.0128 0 
562 1 6.81685 -16.9817 0 
564 1 7.93896 -16.9536 0 
566 1 9.06146 -16.9283 0 
568 1 10.1844 -16.9055 0 
571 1 11.8874 -17.8677 0 
570 1 11.3077 -16.8848 0 
573 1 13.011 -17.8493 0 
572 1 12.4315 -16.866 0 
575 1 14.135 -17.8325 0 
574 1 13.5557 -16.849 0 
577 1 15.2594 -17.8172 0 
576 1 14.6803 -16.8336 0 
579 1 16.3842 -17.8033 0 
578 1 15.8052 -16.8195 0 
581 1 17.5093 -17.7905 0 
580 1 16.9306 -16.8067 0 
583 1 18.6348 -17.7788 0 
582 1 18.0564 -16.7951 0 
585 1 19.7607 -17.7681 0 
584 1 19.1825 -16.7844 0 
587 1 20.8869 -17.7581 0 
586 1 20.309 -16.7746 0 
589 1 22.0135 -17.7489 0 
588 1 21.4359 -16.7656 0 
591 1 23.1403 -17.7404 0 
590 1 22.5631 -16.7572 0 
593 1 24.2675 -17.7324 0 
592 1 23.6906 -16.7495 0 
595 2 25.3948 -17.725 0 
594 1 24.8184 -16.7422 0 
596 2 25.9465 -16.7357 0 
597 2 26.5229 -17.7186 0 
598 2 27.0751 -16.7299 0 
599 2 27.6512 -17.7126 0 
600 2 28.2039 -16.7246 0 
602 2 -27.0583 -16.3463 0 
604 2 -25.929 -16.3096 0 
606 2 -24.7995 -16.2721 0 
608 1 -23.6697 -16.2335 0 
610 1 -22.5395 -16.1936 0 
612 1 -21.4092 -16.1531 0 
614 1 -20.2786 -16.1117 0 
616 1 -19.1477 -16.0694 0 
618 1 -18.0167 -16.0263 0 
620 1 -16.8855 -15.9822 0 
622 1 -15.7542 -15.9371 0 
624 1 -14.6228 -15.8909 0 
626 1 -13.4915 -15.8436 0 
628 1 -12.3603 -15.7954 0 
630 1 -11.2295 -15.7463 0 
631 1 -10.6408 -16.698 0 
632 1 -10.0991 -15.6964 0 
633 1 -9.51102 -16.6488 0 
634 1 -8.96918 -15.6458 0 
635 1 -8.38185 -16.5991 0 
636 1 -7.83993 -15.5946 0 
637 1 -7.25332 -16.549 0 
639 1 -6.12545 -16.4986 0 
641 1 -4.99827 -16.4481 0 
643 1 -3.87179 -16.3977 0 
645 1 -2.74603 -16.3474 0 
647 1 -1.62104 -16.2976 0 
649 1 -0.496822 -16.2486 0 
651 1 0.626607 -16.2009 0 
653 1 1.7493 -16.1551 0 
655 1 2.87139 -16.1118 0 
657 1 3.99309 -16.0717 0 
659 1 5.11467 -16.0352 0 
661 1 6.23641 -16.0022 0 
663 1 7.35848 -15.9728 0 
665 1 8.48101 -15.9464 0 
667 1 9.60402 -15.9228 0 
669 1 10.7275 -15.9016 0 
671 1 11.8514 -15.8825 0 
673 1 12.9758 -15.8652 0 
675 1 14.1006 -15.8496 0 
677 1 15.2259 -15.8355 0 
679 1 16.3515 -15.8227 0 
681 1 17.4776 -15.811 0 
683 1 18.604 -15.8005 0 
685 1 19.7309 -15.7909 0 
687 1 20.8581 -15.782 0 
689 1 21.9856 -15.7738 0 
691 1 23.1135 -15.7663 0 
693 1 24.2416 -15.7593 0 
695 2 25.3699 -15.7527 0 
697 2 26.4989 -15.7471 0 
699 2 27.6281 -15.742 0 
701 2 -27.6483 -15.3934 0 
703 2 -26.5193 -15.357 0 
705 2 -25.3901 -15.3199 0 
707 2 -24.2607 -15.282 0 
709 1 -23.1308 -15.2425 0 
711 1 -22.0006 -15.2021 0 
713 1 -20.8702 -15.161 0 
715 1 -19.7395 -15.119 0 
717 1 -18.6086 -15.0761 0 
719 1 -17.4774 -15.0322 0 
721 1 -16.3459 -14.9872 0 
723 1 -15.2144 -14.9411 0 
725 1 -14.0828 -14.8938 0 
727 1 -12.9512 -14.8454 0 
729 1 -11.8198 -14.7958 0 
731 1 -10.6887 -14.7453 0 
733 1 -9.55809 -14.6939 0 
735 1 -8.42809 -14.6418 0 
638 1 -6.71136 -15.5431 0 
737 1 -7.29876 -14.5891 0 
640 1 -5.58348 -15.4912 0 
739 1 -6.17014 -14.5359 0 
642 1 -4.45632 -15.4392 0 
741 1 -5.04224 -14.4825 0 
644 1 -3.32989 -15.3873 0 
743 1 -3.9151 -14.4289 0 
646 1 -2.20425 -15.3356 0 
648 1 -1.07941 -15.2845 0 
650 1 0.0445774 -15.2344 0 
652 1 1.16774 -15.186 0 
654 1 2.29016 -15.14 0 
656 1 3.41204 -15.0971 0 
658 1 4.53366 -15.058 0 
660 1 5.65535 -15.023 0 
662 1 6.77738 -14.9919 0 
664 1 7.89991 -14.9644 0 
666 1 9.023 -14.9399 0 
668 1 10.1466 -14.9181 0 
670 1 11.2708 -14.8986 0 
672 1 12.3954 -14.881 0 
674 1 13.5205 -14.8653 0 
676 1 14.646 -14.8511 0 
678 1 15.772 -14.8383 0 
680 1 16.8983 -14.8267 0 
682 1 18.0251 -14.8163 0 
684 1 19.1523 -14.8068 0 
686 1 20.2799 -14.7981 0 
688 1 21.4079 -14.7902 0 
690 1 22.5361 -14.7829 0 
692 1 23.6647 -14.7761 0 
694 1 24.7935 -14.7698 0 
696 2 25.9226 -14.7642 0 
698 2 27.0521 -14.7592 0 
700 2 28.1818 -14.7547 0 
702 2 -27.11 -14.4044 0 
801 2 -27.7009 -13.4516 0 
704 2 -25.9811 -14.3676 0 
803 2 -26.5724 -13.4152 0 
706 2 -24.852 -14.3301 0 
805 2 -25.4437 -13.3781 0 
708 1 -23.7225 -14.2913 0 
807 2 -24.3146 -13.3401 0 
710 1 -22.5926 -14.2513 0 
809 1 -23.1852 -13.3005 0 
712 1 -21.4625 -14.2105 0 
714 1 -20.3321 -14.1688 0 
716 1 -19.2013 -14.1262 0 
718 1 -18.0702 -14.0826 0 
720 1 -16.9389 -14.0379 0 
722 1 -15.8073 -13.992 0 
724 1 -14.6755 -13.9448 0 
726 1 -13.5436 -13.8963 0 
728 1 -12.4117 -13.8466 0 
730 1 -11.2801 -13.7957 0 
732 1 -10.1487 -13.7436 0 
734 1 -9.01796 -13.6906 0 
736 1 -7.88783 -13.6369 0 
738 1 -6.75841 -13.5824 0 
740 1 -5.62973 -13.5275 0 
742 1 -4.5018 -13.4723 0 
744 1 -3.37467 -13.4168 0 
745 1 -2.78874 -14.3753 0 
746 1 -2.24842 -13.3614 0 
747 1 -1.66323 -14.322 0 
748 1 -1.1231 -13.3065 0 
749 1 -0.538609 -14.2696 0 
751 1 0.585112 -14.2185 0 
753 1 1.70799 -14.1695 0 
755 1 2.83017 -14.1236 0 
757 1 3.95194 -14.0816 0 
759 1 5.07363 -14.0441 0 
761 1 6.19561 -14.0111 0 
763 1 7.31813 -13.9821 0 
765 1 8.44129 -13.9567 0 
767 1 9.5651 -13.9342 0 
769 1 10.6895 -13.9143 0 
771 1 11.8144 -13.8965 0 
773 1 12.9398 -13.8805 0 
775 1 14.0657 -13.8663 0 
777 1 15.1919 -13.8535 0 
779 1 16.3187 -13.842 0 
781 1 17.4459 -13.8317 0 
783 1 18.5735 -13.8224 0 
785 1 19.7015 -13.814 0 
787 1 20.8298 -13.8063 0 
789 1 21.9585 -13.7992 0 
791 1 23.0875 -13.7927 0 
793 1 24.2167 -13.7867 0 
795 2 25.3462 -13.7811 0 
797 2 26.4761 -13.7764 0 
799 2 27.6062 -13.772 0 
802 2 -27.164 -12.4626 0 
804 2 -26.0357 -12.4259 0 
806 2 -24.9071 -12.3884 0 
808 1 -23.7781 -12.3497 0 
810 1 -22.6488 -12.3097 0 
811 1 -22.0554 -13.2601 0 
812 1 -21.519 -12.2689 0 
813 1 -20.9253 -13.2188 0 
814 1 -20.389 -12.2272 0 
815 1 -19.7948 -13.1766 0 
816 1 -19.2585 -12.1844 0 
817 1 -18.664 -13.1334 0 
818 1 -18.1277 -12.1406 0 
819 1 -17.5328 -13.0891 0 
821 1 -16.4013 -13.0435 0 
823 1 -15.2696 -12.9966 0 
825 1 -14.1375 -12.9483 0 
827 1 -13.0054 -12.8986 0 
829 1 -11.8732 -12.8474 0 
831 1 -10.7413 -12.7949 0 
833 1 -9.60973 -12.7413 0 
835 1 -8.47877 -12.6865 0 
837 1 -7.34851 -12.631 0 
839 1 -6.21898 -12.5747 0 
841 1 -5.0902 -12.5178 0 
843 1 -3.96221 -12.4605 0 
845 1 -2.83513 -12.4029 0 
847 1 -1.70904 -12.3455 0 
750 1 0.00124121 -13.2526 0 
849 1 -0.584012 -12.2888 0 
851 1 0.539993 -12.2337 0 
752 1 1.12466 -13.2007 0 
853 1 1.66312 -12.1812 0 
754 1 2.24728 -13.1516 0 
855 1 2.7856 -12.1324 0 
756 1 3.36933 -13.1063 0 
758 1 4.49114 -13.0659 0 
760 1 5.61312 -13.0304 0 
762 1 6.73561 -12.9997 0 
764 1 7.85882 -12.9731 0 
766 1 8.98279 -12.9499 0 
768 1 10.1074 -12.9295 0 
770 1 11.2327 -12.9114 0 
772 1 12.3585 -12.8954 0 
774 1 13.4847 -12.8811 0 
776 1 14.6114 -12.8683 0 
778 1 15.7386 -12.857 0 
780 1 16.8662 -12.8468 0 
782 1 17.9942 -12.8377 0 
784 1 19.1227 -12.8295 0 
786 1 20.2515 -12.8221 0 
788 1 21.3807 -12.8154 0 
790 1 22.5102 -12.8091 0 
792 1 23.6399 -12.8034 0 
794 1 24.7699 -12.7981 0 
796 2 25.9 -12.7934 0 
798 2 27.0306 -12.7893 0 
800 2 28.1612 -12.7854 0 
901 2 -27.7557 -11.5099 0 
903 2 -26.6279 -11.4735 0 
905 2 -25.4997 -11.4364 0 
907 2 -24.3713 -11.3985 0 
909 1 -23.2426 -11.3593 0 
911 1 -22.1133 -11.3191 0 
913 1 -20.9837 -11.2779 0 
915 1 -19.8537 -11.2358 0 
917 1 -18.7233 -11.1925 0 
820 1 -16.9965 -12.0955 0 
919 1 -17.5925 -11.148 0 
822 1 -15.8649 -12.049 0 
921 1 -16.4612 -11.1022 0 
824 1 -14.7329 -12.0011 0 
923 1 -15.3296 -11.0548 0 
826 1 -13.6007 -11.9517 0 
925 1 -14.1975 -11.0058 0 
828 1 -12.4682 -11.9006 0 
927 1 -13.065 -10.9552 0 
830 1 -11.3358 -11.848 0 
832 1 -10.2036 -11.7939 0 
834 1 -9.07179 -11.7384 0 
836 1 -7.94065 -11.6819 0 
838 1 -6.81024 -11.6243 0 
840 1 -5.68054 -11.566 0 
842 1 -4.5516 -11.5069 0 
844 1 -3.42354 -11.4471 0 
846 1 -2.29654 -11.3871 0 
848 1 -1.17073 -11.3274 0 
850 1 -0.046098 -11.2689 0 
852 1 1.07753 -11.2127 0 
854 1 2.20046 -11.1601 0 
857 1 3.90771 -12.0886 0 
856 1 3.32301 -11.1125 0 
859 1 5.02981 -12.0502 0 
858 1 4.44546 -11.0707 0 
861 1 6.15231 -12.0173 0 
860 1 5.56813 -11.0351 0 
863 1 7.27555 -11.9893 0 
862 1 6.69142 -11.0052 0 
865 1 8.39966 -11.9652 0 
864 1 7.81565 -10.98 0 
867 1 9.5246 -11.9443 0 
869 1 10.6503 -11.9259 0 
871 1 11.7765 -11.9098 0 
873 1 12.9032 -11.8954 0 
875 1 14.0304 -11.8828 0 
877 1 15.158 -11.8715 0 
879 1 16.2861 -11.8616 0 
881 1 17.4146 -11.8527 0 
883 1 18.5436 -11.8448 0 
885 1 19.673 -11.8377 0 
887 1 20.8027 -11.8313 0 
889 1 21.9327 -11.8254 0 
891 1 23.0629 -11.8199 0 
893 1 24.1934 -11.8149 0 
895 2 25.3239 -11.8103 0 
897 2 26.4549 -11.8064 0 
899 2 27.586 -11.8028 0 
902 2 -27.2202 -10.5209 0 
904 2 -26.0925 -10.4842 0 
906 2 -24.9646 -10.4468 0 
908 1 -23.8366 -10.4085 0 
910 1 -22.708 -10.3691 0 
912 1 -21.579 -10.3286 0 
914 1 -20.4495 -10.2872 0 
916 1 -19.3196 -10.2446 0 
918 1 -18.1893 -10.2008 0 
920 1 -17.0585 -10.1557 0 
922 1 -15.9273 -10.109 0 
924 1 -14.7956 -10.0608 0 
926 1 -13.6634 -10.0108 0 
928 1 -12.5308 -9.95893 0 
929 1 -11.9323 -10.9028 0 
930 1 -11.3978 -9.90511 0 
931 1 -10.7996 -10.8486 0 
932 1 -10.2649 -9.84931 0 
933 1 -9.66709 -10.7927 0 
935 1 -8.53509 -10.7354 0 
937 1 -7.40376 -10.6769 0 
939 1 -6.27311 -10.6172 0 
941 1 -5.14313 -10.5565 0 
943 1 -4.01395 -10.4946 0 
945 1 -2.88582 -10.432 0 
947 1 -1.75901 -10.369 0 
949 1 -0.633624 -10.3067 0 
951 1 0.490477 -10.2462 0 
953 1 1.61371 -10.1893 0 
955 1 2.73663 -10.1375 0 
957 1 3.85959 -10.0919 0 
959 1 4.98274 -10.0531 0 
961 1 6.10631 -10.0209 0 
963 1 7.2307 -9.99433 0 
965 1 8.35618 -9.97212 0 
866 1 8.94087 -10.9585 0 
967 1 9.48273 -9.95321 0 
868 1 10.067 -10.9399 0 
969 1 10.6101 -9.93689 0 
870 1 11.1937 -10.9236 0 
971 1 11.7381 -9.92268 0 
872 1 12.321 -10.9093 0 
973 1 12.8665 -9.91028 0 
874 1 13.4488 -10.8968 0 
975 1 13.9954 -9.89946 0 
876 1 14.577 -10.8857 0 
977 1 15.1247 -9.89 0 
878 1 15.7056 -10.876 0 
979 1 16.2545 -9.88173 0 
880 1 16.8347 -10.8674 0 
981 1 17.3846 -9.87446 0 
882 1 17.9643 -10.8598 0 
983 1 18.5152 -9.86803 0 
884 1 19.0942 -10.853 0 
985 1 19.6461 -9.86231 0 
886 1 20.2245 -10.8469 0 
987 1 20.7773 -9.85714 0 
888 1 21.355 -10.8414 0 
890 1 22.4858 -10.8363 0 
989 1 21.9087 -9.85242 0 
892 1 23.6168 -10.8316 0 
991 1 23.0403 -9.84808 0 
894 1 24.748 -10.8272 0 
993 1 24.172 -9.84407 0 
896 2 25.8793 -10.8234 0 
995 2 25.3037 -9.84035 0 
898 2 27.0108 -10.8201 0 
997 2 26.4357 -9.83726 0 
900 2 28.1423 -10.817 0 
999 2 27.5677 -9.8344 0 
1001 2 -27.8125 -9.56805 0 
1003 2 -26.6854 -9.5318 0 
1005 2 -25.5581 -9.49477 0 
1007 2 -24.4305 -9.45693 0 
1009 1 -23.3029 -9.41859 0 
1011 1 -22.1746 -9.37898 0 
1013 1 -21.0457 -9.33823 0 
1015 1 -19.9164 -9.29637 0 
1017 1 -18.7867 -9.25332 0 
1019 1 -17.6566 -9.20899 0 
1021 1 -16.526 -9.16319 0 
1023 1 -15.3949 -9.1158 0 
1025 1 -14.2632 -9.06666 0 
1027 1 -13.131 -9.01561 0 
1029 1 -11.9983 -8.9625 0 
1031 1 -10.8652 -8.9072 0 
934 1 -9.13211 -9.79165 0 
1033 1 -9.73196 -8.84964 0 
936 1 -7.99988 -9.73234 0 
1035 1 -8.59896 -8.78991 0 
938 1 -6.86827 -9.67155 0 
1037 1 -7.46639 -8.72816 0 
940 1 -5.73723 -9.60933 0 
1039 1 -6.3343 -8.66454 0 
942 1 -4.60679 -9.54555 0 
944 1 -3.47732 -9.48034 0 
946 1 -2.34921 -9.41406 0 
948 1 -1.22277 -9.34751 0 
950 1 -0.0980396 -9.28208 0 
952 1 1.02536 -9.21988 0 
954 1 2.14827 -9.16319 0 
956 1 3.27153 -9.11345 0 
958 1 4.39539 -9.07114 0 
960 1 5.51972 -9.03626 0 
962 1 6.64459 -9.00802 0 
964 1 7.77045 -8.98504 0 
966 1 8.8975 -8.96586 0 
968 1 10.0256 -8.94953 0 
970 1 11.1544 -8.93547 0 
972 1 12.2837 -8.9233 0 
974 1 13.4133 -8.91276 0 
976 1 14.5434 -8.90364 0 
978 1 15.6739 -8.89573 0 
980 1 16.8048 -8.88885 0 
982 1 17.9361 -8.88281 0 
984 1 19.0677 -8.87748 0 
986 1 20.1995 -8.87271 0 
988 1 21.3316 -8.86838 0 
990 1 22.4638 -8.86441 0 
992 1 23.5961 -8.86074 0 
994 1 24.7284 -8.85734 0 
996 2 25.8608 -8.85435 0 
998 2 26.9933 -8.85174 0 
1000 2 28.1257 -8.84931 0 
1002 2 -27.2783 -8.57905 0 
1101 2 -27.8711 -7.62598 0 
1004 2 -26.1516 -8.54247 0 
1103 2 -26.7449 -7.58983 0 
1006 2 -25.0246 -8.50509 0 
1105 2 -25.6186 -7.5529 0 
1008 1 -23.8976 -8.46716 0 
1107 2 -24.492 -7.51516 0 
1010 1 -22.7702 -8.42858 0 
1012 1 -21.6421 -8.3887 0 
1014 1 -20.5135 -8.34759 0 
1016 1 -19.3845 -8.30529 0 
1018 1 -18.2551 -8.26173 0 
1020 1 -17.1252 -8.21679 0 
1022 1 -15.9949 -8.17029 0 
1024 1 -14.8641 -8.12209 0 
1026 1 -13.7326 -8.07202 0 
1028 1 -12.6004 -8.01987 0 
1030 1 -11.4677 -7.96542 0 
1032 1 -10.3345 -7.90844 0 
1034 1 -9.20107 -7.84875 0 
1036 1 -8.06765 -7.78632 0 
1038 1 -6.93448 -7.72128 0 
1041 1 -5.20263 -8.59895 0 
1040 1 -5.80169 -7.65388 0 
1043 1 -4.07168 -8.53124 0 
1042 1 -4.66936 -7.58394 0 
1045 1 -2.94211 -8.46183 0 
1044 1 -3.53824 -7.51158 0 
1047 1 -1.81427 -8.39121 0 
1049 1 -0.688462 -8.32049 0 
1051 1 0.435295 -8.25199 0 
1053 1 1.55783 -8.1891 0 
1055 1 2.6807 -8.1345 0 
1057 1 3.80505 -8.08864 0 
1059 1 4.93056 -8.05087 0 
1061 1 6.05661 -8.02071 0 
1063 1 7.18334 -7.99697 0 
1065 1 8.31112 -7.97765 0 
1067 1 9.44004 -7.96145 0 
1069 1 10.5698 -7.94763 0 
1071 1 11.7001 -7.93577 0 
1073 1 12.8308 -7.92559 0 
1075 1 13.9617 -7.91687 0 
1077 1 15.0931 -7.90939 0 
1079 1 16.2248 -7.90295 0 
1081 1 17.3569 -7.89735 0 
1083 1 18.4892 -7.89244 0 
1085 1 19.6218 -7.88809 0 
1087 1 20.7546 -7.88417 0 
1089 1 21.8874 -7.88058 0 
1091 1 23.0203 -7.87728 0 
1093 1 24.1532 -7.87421 0 
1095 2 25.2861 -7.87134 0 
1097 2 26.419 -7.86899 0 
1099 2 27.5519 -7.8668 0 
1102 2 -27.3381 -6.63684 0 
1104 2 -26.2124 -6.60035 0 
1106 2 -25.0865 -6.56307 0 
1108 1 -23.9605 -6.52536 0 
1109 1 -23.3654 -7.47727 0 
1110 1 -22.8342 -6.48737 0 
1111 1 -22.2384 -7.43849 0 
1112 1 -21.7076 -6.44843 0 
1113 1 -21.1107 -7.39834 0 
1114 1 -20.5804 -6.40801 0 
1115 1 -19.9825 -7.35685 0 
1116 1 -19.4526 -6.36608 0 
1117 1 -18.8539 -7.31406 0 
1119 1 -17.7249 -7.26994 0 
1121 1 -16.5954 -7.22435 0 
1123 1 -15.4655 -7.17713 0 
1125 1 -14.335 -7.12812 0 
1127 1 -13.2038 -7.07709 0 
1129 1 -12.0719 -7.02376 0 
1131 1 -10.9392 -6.96781 0 
1133 1 -9.80579 -6.90882 0 
1135 1 -8.67183 -6.84637 0 
1137 1 -7.53755 -6.78031 0 
1139 1 -6.40344 -6.71107 0 
1141 1 -5.26988 -6.63933 0 
1143 1 -4.13703 -6.56442 0 
1145 1 -3.0062 -6.48709 0 
1046 1 -2.40888 -7.43728 0 
1147 1 -1.87734 -6.40647 0 
1048 1 -1.28168 -7.36158 0 
1050 1 -0.156927 -7.28588 0 
1052 1 0.965201 -7.21469 0 
1054 1 2.08675 -7.15388 0 
1056 1 3.21077 -7.10494 0 
1058 1 4.33734 -7.06451 0 
1060 1 5.46534 -7.03204 0 
1062 1 6.59393 -7.00737 0 
1064 1 7.72318 -6.98822 0 
1066 1 8.85332 -6.97244 0 
1068 1 9.98434 -6.95908 0 
1070 1 11.1159 -6.94766 0 
1072 1 12.2477 -6.93793 0 
1074 1 13.3798 -6.92968 0 
1076 1 14.5121 -6.9227 0 
1078 1 15.6447 -6.91675 0 
1080 1 16.7777 -6.91164 0 
1082 1 17.9109 -6.90719 0 
1084 1 19.0443 -6.90328 0 
1086 1 20.1777 -6.89978 0 
1088 1 21.3113 -6.89659 0 
1090 1 22.4448 -6.89367 0 
1092 1 23.5783 -6.89094 0 
1094 1 24.7117 -6.8884 0 
1096 2 25.8451 -6.88616 0 
1098 2 26.9784 -6.88422 0 