ITEM: TIMESTEP
1100
ITEM: NUMBER OF ATOMS
2850
ITEM: BOX BOUNDS ff ff pp
-42.092 42.092
-42.092 42.092
-0.280613 0.280613
ITEM: ATOMS id type xu yu zu 
1 2 -27.3398 -28.9988 0 
3 2 -26.2107 -28.9642 0 
5 2 -25.0816 -28.9291 0 
7 2 -23.9525 -28.8936 0 
9 2 -22.8235 -28.8577 0 
11 2 -21.6944 -28.8213 0 
13 2 -20.5655 -28.7844 0 
15 2 -19.4366 -28.7472 0 
17 2 -18.3079 -28.7095 0 
19 2 -17.1793 -28.6715 0 
21 2 -16.0508 -28.6331 0 
23 2 -14.9226 -28.5944 0 
25 2 -13.7947 -28.5554 0 
27 2 -12.667 -28.5163 0 
29 2 -11.5396 -28.477 0 
31 2 -10.4126 -28.4376 0 
33 2 -9.28592 -28.3982 0 
35 2 -8.15967 -28.3589 0 
37 2 -7.03386 -28.3198 0 
39 2 -5.90848 -28.281 0 
2 2 -26.7941 -28.0086 0 
4 2 -25.6649 -27.9736 0 
6 2 -24.5357 -27.9381 0 
8 2 -23.4065 -27.902 0 
10 2 -22.2773 -27.8656 0 
12 2 -21.1481 -27.8286 0 
14 2 -20.019 -27.7912 0 
16 2 -18.89 -27.7533 0 
18 2 -17.7611 -27.715 0 
20 2 -16.6324 -27.6763 0 
22 2 -15.5039 -27.6373 0 
24 2 -14.3755 -27.5979 0 
26 2 -13.2475 -27.5582 0 
28 2 -12.1197 -27.5183 0 
30 2 -10.9923 -27.4783 0 
32 2 -9.86522 -27.4382 0 
34 2 -8.73856 -27.3981 0 
36 2 -7.61233 -27.3581 0 
38 2 -6.48656 -27.3184 0 
40 2 -5.36126 -27.2789 0 
41 2 -4.78357 -28.2426 0 
42 2 -4.23645 -27.24 0 
43 2 -3.65912 -28.2046 0 
44 2 -3.11213 -27.2015 0 
45 2 -2.53513 -28.1673 0 
46 2 -1.98828 -27.1638 0 
47 2 -1.41159 -28.1307 0 
48 2 -0.8649 -27.1269 0 
49 2 -0.288464 -28.095 0 
51 2 0.834263 -28.0602 0 
53 2 1.95663 -28.0264 0 
55 2 3.07869 -27.9937 0 
57 2 4.20048 -27.9622 0 
59 2 5.32207 -27.9319 0 
61 2 6.4435 -27.9029 0 
63 2 7.56483 -27.8752 0 
65 2 8.68613 -27.8488 0 
67 2 9.80743 -27.8237 0 
69 2 10.9288 -27.8 0 
71 2 12.0503 -27.7775 0 
73 2 13.1719 -27.7563 0 
75 2 14.2937 -27.7363 0 
77 2 15.4157 -27.7174 0 
79 2 16.538 -27.6997 0 
81 2 17.6605 -27.683 0 
83 2 18.7832 -27.6673 0 
85 2 19.9063 -27.6526 0 
87 2 21.0296 -27.6388 0 
89 2 22.1532 -27.6258 0 
91 2 23.2771 -27.6136 0 
93 2 24.4012 -27.6022 0 
95 2 25.5256 -27.5914 0 
97 2 26.6503 -27.5812 0 
99 2 27.7752 -27.5717 0 
101 2 -27.378 -27.0533 0 
103 2 -26.2487 -27.0183 0 
102 2 -26.833 -26.0633 0 
105 2 -25.1194 -26.9828 0 
104 2 -25.7037 -26.0278 0 
107 2 -23.9901 -26.9468 0 
106 2 -24.5742 -25.9918 0 
109 2 -22.8607 -26.9102 0 
108 1 -23.4435 -25.9549 0 
111 2 -21.7314 -26.8732 0 
113 2 -20.6021 -26.8357 0 
115 2 -19.4729 -26.7977 0 
117 2 -18.3437 -26.7591 0 
119 2 -17.2147 -26.7202 0 
121 2 -16.0858 -26.6808 0 
123 2 -14.9572 -26.641 0 
125 2 -13.8287 -26.6009 0 
127 2 -12.7006 -26.5605 0 
129 2 -11.5727 -26.5198 0 
131 2 -10.4452 -26.479 0 
133 2 -9.31813 -26.4382 0 
135 2 -8.19146 -26.3973 0 
137 2 -7.06526 -26.3566 0 
139 2 -5.93954 -26.3162 0 
141 2 -4.81433 -26.2762 0 
143 2 -3.68963 -26.2366 0 
145 2 -2.56545 -26.1977 0 
147 2 -1.44177 -26.1596 0 
50 2 0.258046 -27.0909 0 
149 2 -0.318563 -26.1224 0 
52 2 1.38059 -27.056 0 
151 2 0.804196 -26.0862 0 
54 2 2.50279 -27.0222 0 
153 2 1.92656 -26.0512 0 
56 2 3.62468 -26.9896 0 
155 2 3.04857 -26.0174 0 
58 2 4.74633 -26.9582 0 
157 2 4.1703 -25.9849 0 
60 2 5.86779 -26.9282 0 
159 2 5.2918 -25.9538 0 
62 2 6.98913 -26.8996 0 
64 2 8.11041 -26.8723 0 
66 2 9.23169 -26.8465 0 
68 2 10.353 -26.822 0 
70 2 11.4745 -26.7989 0 
72 2 12.596 -26.7771 0 
74 2 13.7178 -26.7566 0 
76 2 14.8398 -26.7373 0 
78 2 15.962 -26.7192 0 
80 2 17.0845 -26.7023 0 
82 2 18.2073 -26.6863 0 
84 2 19.3304 -26.6714 0 
86 2 20.4538 -26.6575 0 
88 2 21.5774 -26.6444 0 
90 2 22.7014 -26.6321 0 
92 2 23.8256 -26.6206 0 
94 2 24.9501 -26.6098 0 
96 2 26.0749 -26.5996 0 
98 2 27.2 -26.5901 0 
100 2 28.3253 -26.5811 0 
201 2 -27.4179 -25.1085 0 
203 2 -26.2885 -25.0731 0 
205 2 -25.159 -25.0372 0 
207 2 -24.0295 -25.0007 0 
209 1 -22.8987 -24.9626 0 
110 1 -22.3136 -25.9168 0 
211 1 -21.7671 -24.923 0 
112 1 -21.1834 -25.8773 0 
213 1 -20.6365 -24.8801 0 
114 1 -20.054 -25.8371 0 
215 1 -19.5079 -24.8379 0 
116 1 -18.926 -25.7986 0 
217 1 -18.3793 -24.8015 0 
118 1 -17.7971 -25.7608 0 
120 1 -16.6669 -25.7219 0 
122 1 -15.5365 -25.6819 0 
124 1 -14.4059 -25.6415 0 
126 1 -13.2759 -25.5996 0 
128 1 -12.1478 -25.557 0 
130 1 -11.0221 -25.5161 0 
132 1 -9.89581 -25.4753 0 
134 1 -8.7691 -25.4329 0 
136 1 -7.6429 -25.3903 0 
138 1 -6.51728 -25.3481 0 
140 1 -5.39165 -25.3073 0 
142 1 -4.26649 -25.2665 0 
144 1 -3.14336 -25.2271 0 
146 1 -2.021 -25.1899 0 
148 1 -0.898255 -25.1517 0 
150 1 0.224056 -25.1153 0 
152 1 1.34619 -25.0801 0 
154 1 2.46868 -25.0438 0 
156 1 3.5917 -25.0097 0 
158 1 4.71379 -24.9759 0 
160 1 5.83465 -24.9452 0 
161 2 6.41316 -25.9242 0 
162 1 6.95559 -24.9186 0 
163 2 7.53443 -25.896 0 
164 1 8.0775 -24.893 0 
165 2 8.65568 -25.8693 0 
167 2 9.77697 -25.844 0 
166 1 9.19988 -24.8672 0 
169 2 10.8984 -25.8202 0 
168 1 10.3217 -24.8441 0 
171 2 12.0199 -25.7978 0 
170 1 11.444 -24.8211 0 
173 2 13.1416 -25.7768 0 
175 2 14.2636 -25.7571 0 
177 2 15.3858 -25.7386 0 
179 2 16.5083 -25.7213 0 
181 2 17.6311 -25.7052 0 
183 2 18.7543 -25.6901 0 
185 2 19.8777 -25.6759 0 
187 2 21.0014 -25.6627 0 
189 2 22.1254 -25.6504 0 
191 2 23.2498 -25.6388 0 
193 2 24.3744 -25.628 0 
195 2 25.4993 -25.6179 0 
197 2 26.6245 -25.6084 0 
199 2 27.75 -25.5994 0 
202 2 -26.8739 -24.1187 0 
204 2 -25.7444 -24.0828 0 
206 2 -24.6148 -24.0464 0 
208 1 -23.4831 -24.0078 0 
210 1 -22.3529 -23.9697 0 
212 1 -21.2227 -23.9273 0 
214 1 -20.0922 -23.883 0 
216 1 -18.96 -23.8435 0 
219 1 -17.2489 -24.765 0 
218 1 -17.8297 -23.8067 0 
221 1 -16.1169 -24.7249 0 
220 1 -16.6997 -23.769 0 
222 1 -15.5689 -23.7265 0 
223 1 -14.9866 -24.6835 0 
224 1 -14.4371 -23.6857 0 
225 1 -13.8565 -24.6425 0 
227 1 -12.7258 -24.599 0 
229 1 -11.5968 -24.5533 0 
231 1 -10.47 -24.511 0 
233 1 -9.34481 -24.4694 0 
235 1 -8.21896 -24.4268 0 
237 1 -7.09268 -24.3836 0 
239 1 -5.96743 -24.3406 0 
241 1 -4.84363 -24.2987 0 
243 1 -3.71971 -24.2574 0 
245 1 -2.59649 -24.2189 0 
247 1 -1.47473 -24.1811 0 
249 1 -0.352398 -24.1438 0 
251 1 0.770205 -24.109 0 
253 1 1.89257 -24.0731 0 
255 1 3.01593 -24.0368 0 
257 1 4.13811 -24.0015 0 
259 1 5.25997 -23.9696 0 
261 1 6.38166 -23.9406 0 
263 1 7.50284 -23.9136 0 
265 1 8.62495 -23.8885 0 
267 1 9.74711 -23.8644 0 
269 1 10.8692 -23.8427 0 
271 1 11.992 -23.8193 0 
172 1 12.5669 -24.7976 0 
273 1 13.115 -23.7965 0 
174 1 13.6902 -24.7757 0 
275 1 14.2369 -23.775 0 
176 1 14.8126 -24.7567 0 
277 1 15.3592 -23.7582 0 
178 1 15.9356 -24.7397 0 
279 1 16.4823 -23.7427 0 
180 1 17.0591 -24.7245 0 
281 1 17.6055 -23.7274 0 
182 1 18.1819 -24.7077 0 
283 1 18.7288 -23.7083 0 
184 1 19.3025 -24.692 0 
285 1 19.8519 -23.6941 0 
186 1 20.4241 -24.6786 0 
287 1 20.974 -23.681 0 
188 1 21.5473 -24.6669 0 
289 1 22.0966 -23.6735 0 
190 1 22.6734 -24.6584 0 
291 1 23.2202 -23.6653 0 
192 1 23.8003 -24.6468 0 
293 1 24.3468 -23.655 0 
194 1 24.9259 -24.6358 0 
295 2 25.4729 -23.6443 0 
196 2 26.0488 -24.6264 0 
198 2 27.1745 -24.6176 0 
200 2 28.3003 -24.6093 0 
301 2 -27.4598 -23.1644 0 
303 2 -26.3303 -23.1287 0 
305 2 -25.2007 -23.0924 0 
307 2 -24.071 -23.0555 0 
309 1 -22.9386 -23.0143 0 
311 1 -21.8086 -22.9742 0 
313 1 -20.6784 -22.9318 0 
315 1 -19.5456 -22.8911 0 
317 1 -18.4132 -22.8498 0 
319 1 -17.2827 -22.8103 0 
321 1 -16.1524 -22.7699 0 
323 1 -15.0203 -22.7291 0 
226 1 -13.3065 -23.6436 0 
325 1 -13.8893 -22.6864 0 
327 1 -12.7619 -22.6395 0 
228 1 -12.1781 -23.5961 0 
329 1 -11.6339 -22.5921 0 
230 1 -11.0496 -23.5495 0 
331 1 -10.5041 -22.5471 0 
232 1 -9.92107 -23.5059 0 
333 1 -9.3748 -22.5027 0 
234 1 -8.79365 -23.4639 0 
236 1 -7.66866 -23.4205 0 
238 1 -6.54466 -23.3762 0 
240 1 -5.4214 -23.3327 0 
242 1 -4.29849 -23.2909 0 
244 1 -3.1755 -23.2506 0 
246 1 -2.05297 -23.2113 0 
248 1 -0.930528 -23.1732 0 
250 1 0.192631 -23.1364 0 
252 1 1.31489 -23.1005 0 
254 1 2.43725 -23.0646 0 
256 1 3.55916 -23.0275 0 
258 1 4.68073 -22.9954 0 
260 1 5.80239 -22.9652 0 
262 1 6.92456 -22.9352 0 
264 1 8.0472 -22.9096 0 
266 1 9.16975 -22.8842 0 
268 1 10.2928 -22.8602 0 
270 1 11.4153 -22.8377 0 
272 1 12.537 -22.8161 0 
274 1 13.6588 -22.7947 0 
276 1 14.7817 -22.7772 0 
278 1 15.9055 -22.7611 0 
280 1 17.0274 -22.7452 0 
282 1 18.1479 -22.7272 0 
284 1 19.2723 -22.7106 0 
286 1 20.3974 -22.6966 0 
288 1 21.5214 -22.6863 0 
290 1 22.6429 -22.6784 0 
292 1 23.7666 -22.6726 0 
294 1 24.8935 -22.662 0 
297 2 26.5987 -23.6355 0 
296 2 26.0228 -22.6533 0 
299 2 27.7248 -23.6273 0 
298 2 27.149 -22.6452 0 
300 2 28.2755 -22.6376 0 
302 2 -26.9167 -22.1747 0 
304 2 -25.7871 -22.1385 0 
306 2 -24.6574 -22.1018 0 
308 1 -23.5273 -22.0626 0 
310 1 -22.3956 -22.0207 0 
312 1 -21.2643 -21.9795 0 
314 1 -20.1328 -21.9399 0 
316 1 -19.0004 -21.8974 0 
318 1 -17.8672 -21.8538 0 
320 1 -16.735 -21.8127 0 
322 1 -15.6039 -21.7716 0 
324 1 -14.4744 -21.7288 0 
326 1 -13.3464 -21.6821 0 
328 1 -12.218 -21.6354 0 
330 1 -11.0895 -21.5902 0 
332 1 -9.96163 -21.5449 0 
334 1 -8.83371 -21.4968 0 
335 1 -8.24856 -22.4567 0 
336 1 -7.70741 -21.4477 0 
337 1 -7.12446 -22.4118 0 
338 1 -6.58379 -21.4016 0 
339 1 -6.00119 -22.3673 0 
340 1 -5.46112 -21.3581 0 
341 1 -4.87873 -22.3249 0 
343 1 -3.75688 -22.2838 0 
345 1 -2.63424 -22.2432 0 
347 1 -1.51136 -22.2031 0 
349 1 -0.388695 -22.1651 0 
351 1 0.734001 -22.1277 0 
353 1 1.8563 -22.0912 0 
355 1 2.97745 -22.0535 0 
357 1 4.0986 -22.0188 0 
359 1 5.21906 -21.9879 0 
361 1 6.34091 -21.9577 0 
363 1 7.46383 -21.9301 0 
365 1 8.58586 -21.9049 0 
367 1 9.70906 -21.8802 0 
369 1 10.8336 -21.8553 0 
371 1 11.9574 -21.8327 0 
373 1 13.0806 -21.814 0 
375 1 14.2052 -21.7949 0 
377 1 15.3288 -21.7804 0 
379 1 16.4519 -21.763 0 
381 1 17.5729 -21.7452 0 
383 1 18.6964 -21.7292 0 
385 1 19.8211 -21.7142 0 
387 1 20.9454 -21.7023 0 
389 1 22.0691 -21.6927 0 
391 1 23.1926 -21.6866 0 
393 1 24.3175 -21.6794 0 
395 2 25.4466 -21.6709 0 
397 2 26.573 -21.6629 0 
399 2 27.6998 -21.6554 0 
401 2 -27.5037 -21.2208 0 
403 2 -26.3741 -21.1849 0 
402 2 -26.9617 -20.2313 0 
405 2 -25.2445 -21.1483 0 
404 2 -25.8321 -20.1949 0 
407 2 -24.1147 -21.111 0 
409 1 -22.9829 -21.0691 0 
411 1 -21.8513 -21.0273 0 
413 1 -20.7201 -20.9868 0 
415 1 -19.5896 -20.9461 0 
417 1 -18.4575 -20.9022 0 
419 1 -17.3228 -20.8581 0 
421 1 -16.19 -20.8155 0 
423 1 -15.0593 -20.7724 0 
425 1 -13.9309 -20.7262 0 
427 1 -12.8028 -20.679 0 
429 1 -11.6751 -20.6332 0 
431 1 -10.548 -20.5868 0 
433 1 -9.42074 -20.5391 0 
435 1 -8.293 -20.4878 0 
437 1 -7.16746 -20.4376 0 
439 1 -6.04481 -20.392 0 
342 1 -4.33899 -21.3151 0 
441 1 -4.92336 -20.3482 0 
344 1 -3.21721 -21.2733 0 
443 1 -3.80175 -20.304 0 
346 1 -2.09447 -21.2336 0 
445 1 -2.67899 -20.2641 0 
348 1 -0.971495 -21.1949 0 
447 1 -1.55694 -20.2247 0 
350 1 0.150488 -21.1566 0 
352 1 1.27266 -21.1186 0 
354 1 2.39486 -21.0801 0 
356 1 3.51679 -21.043 0 
358 1 4.63783 -21.0079 0 
360 1 5.75848 -20.978 0 
362 1 6.88025 -20.95 0 
364 1 8.00293 -20.9233 0 
366 1 9.12586 -20.8994 0 
368 1 10.2494 -20.876 0 
370 1 11.3738 -20.8527 0 
372 1 12.4989 -20.8324 0 
374 1 13.6247 -20.8142 0 
376 1 14.7514 -20.7962 0 
378 1 15.8754 -20.7819 0 
380 1 16.9993 -20.7631 0 
382 1 18.1238 -20.7492 0 
384 1 19.2486 -20.7341 0 
386 1 20.3723 -20.7196 0 
388 1 21.4953 -20.7081 0 
390 1 22.6185 -20.699 0 
392 1 23.7427 -20.6944 0 
394 1 24.8698 -20.6887 0 
396 2 25.9969 -20.6804 0 
398 2 27.1238 -20.673 0 
400 2 28.251 -20.6661 0 
501 2 -27.5497 -19.2779 0 
503 2 -26.4202 -19.2417 0 
505 2 -25.2906 -19.2049 0 
406 2 -24.7023 -20.1579 0 
507 2 -24.1608 -19.1673 0 
408 1 -23.5695 -20.1169 0 
509 1 -23.0263 -19.1243 0 
410 1 -22.4377 -20.0755 0 
511 1 -21.8943 -19.0822 0 
412 1 -21.3067 -20.0343 0 
513 1 -20.7633 -19.0416 0 
414 1 -20.1759 -19.9937 0 
416 1 -19.0457 -19.9504 0 
418 1 -17.9136 -19.9064 0 
420 1 -16.7792 -19.862 0 
422 1 -15.6467 -19.8184 0 
424 1 -14.518 -19.7724 0 
426 1 -13.3906 -19.7246 0 
428 1 -12.2619 -19.677 0 
430 1 -11.1333 -19.6292 0 
432 1 -10.0051 -19.5806 0 
434 1 -8.8778 -19.5293 0 
436 1 -7.75187 -19.4772 0 
438 1 -6.62814 -19.4282 0 
440 1 -5.50666 -19.3827 0 
442 1 -4.38431 -19.3386 0 
444 1 -3.26099 -19.2973 0 
446 1 -2.13963 -19.255 0 
448 1 -1.01918 -19.2132 0 
449 1 -0.435521 -20.1844 0 
450 1 0.10268 -19.173 0 
451 1 0.686445 -20.1451 0 
452 1 1.22458 -19.1328 0 
453 1 1.80865 -20.1066 0 
454 1 2.34625 -19.0941 0 
455 1 2.9309 -20.0687 0 
456 1 3.4688 -19.057 0 
457 1 4.05367 -20.0316 0 
459 1 5.17719 -19.9974 0 
461 1 6.29827 -19.9687 0 
463 1 7.41997 -19.9437 0 
465 1 8.54395 -19.9176 0 
467 1 9.66794 -19.8936 0 
469 1 10.7903 -19.8727 0 
471 1 11.9141 -19.8523 0 
473 1 13.0402 -19.8331 0 
475 1 14.1674 -19.8157 0 
477 1 15.2941 -19.7983 0 
479 1 16.419 -19.7823 0 
481 1 17.5447 -19.7671 0 
483 1 18.67 -19.7545 0 
485 1 19.7943 -19.7402 0 
487 1 20.9192 -19.7266 0 
489 1 22.0448 -19.7136 0 
491 1 23.1713 -19.7059 0 
493 1 24.2954 -19.704 0 
495 2 25.4205 -19.6978 0 
497 2 26.5477 -19.6905 0 
499 2 27.6751 -19.6838 0 
502 2 -27.0088 -18.2886 0 
504 2 -25.8793 -18.252 0 
506 2 -24.7497 -18.2147 0 
508 1 -23.617 -18.1741 0 
510 1 -22.4847 -18.1312 0 
512 1 -21.3511 -18.0895 0 
514 1 -20.2182 -18.0466 0 
515 1 -19.6324 -18.9988 0 
516 1 -19.0867 -18.0015 0 
517 1 -18.5004 -18.9539 0 
518 1 -17.9562 -17.9562 0 
519 1 -17.3671 -18.9093 0 
520 1 -16.8256 -17.9093 0 
521 1 -16.2347 -18.8639 0 
523 1 -15.1055 -18.8176 0 
525 1 -13.9771 -18.7708 0 
527 1 -12.8476 -18.7218 0 
529 1 -11.718 -18.6726 0 
531 1 -10.5895 -18.6231 0 
533 1 -9.46163 -18.5717 0 
535 1 -8.33458 -18.5182 0 
537 1 -7.21003 -18.4666 0 
539 1 -6.0869 -18.4175 0 
541 1 -4.96299 -18.3727 0 
543 1 -3.83991 -18.3298 0 
545 1 -2.71926 -18.2866 0 
547 1 -1.59819 -18.2439 0 
549 1 -0.476079 -18.2022 0 
551 1 0.643772 -18.1594 0 
553 1 1.76438 -18.1201 0 
555 1 2.8873 -18.0823 0 
557 1 4.01045 -18.0452 0 
458 1 4.59237 -19.0215 0 
559 1 5.13131 -18.0099 0 
460 1 5.71524 -18.9872 0 
561 1 6.25274 -17.9798 0 
462 1 6.83671 -18.9617 0 
563 1 7.37489 -17.9539 0 
464 1 7.95837 -18.9384 0 
565 1 8.4987 -17.9335 0 
466 1 9.08396 -18.9138 0 
567 1 9.62421 -17.9104 0 
468 1 10.2092 -18.8898 0 
569 1 10.7506 -17.8883 0 
470 1 11.3326 -18.8703 0 
472 1 12.4573 -18.8509 0 
474 1 13.5817 -18.8346 0 
476 1 14.7071 -18.8186 0 
478 1 15.8343 -18.8012 0 
480 1 16.9618 -18.7857 0 
482 1 18.0899 -18.7723 0 
484 1 19.2169 -18.7573 0 
486 1 20.3431 -18.7462 0 
488 1 21.4685 -18.7331 0 
490 1 22.5958 -18.7219 0 
492 1 23.7224 -18.7139 0 
494 1 24.8468 -18.7141 0 
496 2 25.9714 -18.7078 0 
498 2 27.0991 -18.7012 0 
500 2 28.2271 -18.6951 0 
601 2 -27.5979 -17.3354 0 
603 2 -26.4686 -17.2992 0 
605 2 -25.3391 -17.2621 0 
607 2 -24.2094 -17.2244 0 
609 1 -23.0745 -17.1805 0 
611 1 -21.9399 -17.138 0 
613 1 -20.8064 -17.0944 0 
615 1 -19.6748 -17.0483 0 
617 1 -18.5449 -17.0014 0 
619 1 -17.4165 -16.9553 0 
522 1 -15.695 -17.8624 0 
621 1 -16.2858 -16.909 0 
524 1 -14.5651 -17.8156 0 
623 1 -15.1544 -16.8615 0 
526 1 -13.4358 -17.7677 0 
625 1 -14.0244 -16.8124 0 
528 1 -12.3056 -17.7169 0 
627 1 -12.8957 -16.7629 0 
530 1 -11.1763 -17.6663 0 
532 1 -10.0479 -17.616 0 
534 1 -8.92077 -17.5619 0 
536 1 -7.79405 -17.5079 0 
538 1 -6.66787 -17.4552 0 
540 1 -5.54221 -17.4063 0 
542 1 -4.41782 -17.3611 0 
544 1 -3.29696 -17.3167 0 
546 1 -2.17653 -17.2741 0 
548 1 -1.05504 -17.2319 0 
550 1 0.0660509 -17.1865 0 
552 1 1.18738 -17.1447 0 
554 1 2.30772 -17.1053 0 
556 1 3.42864 -17.0689 0 
558 1 4.54997 -17.0327 0 
560 1 5.67111 -17.0001 0 
562 1 6.79333 -16.9715 0 
564 1 7.9164 -16.9478 0 
566 1 9.0385 -16.9284 0 
568 1 10.1645 -16.9086 0 
571 1 11.8763 -17.8696 0 
570 1 11.2923 -16.89 0 
573 1 13.0015 -17.8507 0 
572 1 12.4203 -16.8727 0 
575 1 14.1257 -17.8376 0 
574 1 13.5487 -16.8552 0 
577 1 15.2528 -17.8222 0 
576 1 14.6761 -16.84 0 
579 1 16.3817 -17.8059 0 
578 1 15.8034 -16.8244 0 
581 1 17.5095 -17.7917 0 
580 1 16.9309 -16.8099 0 
583 1 18.6366 -17.7746 0 
582 1 18.0575 -16.7945 0 
585 1 19.7648 -17.762 0 
584 1 19.1863 -16.779 0 
587 1 20.8918 -17.7514 0 
586 1 20.3138 -16.7668 0 
589 1 22.0184 -17.7416 0 
588 1 21.4411 -16.7581 0 
591 1 23.1434 -17.7296 0 
590 1 22.567 -16.7492 0 
593 1 24.2693 -17.7255 0 
592 1 23.6937 -16.7412 0 
595 2 25.3948 -17.725 0 
594 1 24.8192 -16.7383 0 
596 2 25.9465 -16.7357 0 
597 2 26.5229 -17.7186 0 
598 2 27.0751 -16.7299 0 
599 2 27.6512 -17.7126 0 
600 2 28.2039 -16.7246 0 
602 2 -27.0583 -16.3463 0 
604 2 -25.929 -16.3096 0 
606 2 -24.7995 -16.2721 0 
608 1 -23.6665 -16.2324 0 
610 1 -22.5316 -16.1874 0 
612 1 -21.399 -16.1423 0 
614 1 -20.2685 -16.0962 0 
616 1 -19.1378 -16.049 0 
618 1 -18.006 -16.001 0 
620 1 -16.8752 -15.9555 0 
622 1 -15.7449 -15.9095 0 
624 1 -14.6138 -15.8599 0 
626 1 -13.4826 -15.8093 0 
628 1 -12.3521 -15.7579 0 
629 1 -11.7656 -16.7118 0 
630 1 -11.2227 -15.7051 0 
631 1 -10.6353 -16.6595 0 
632 1 -10.0934 -15.65 0 
633 1 -9.50706 -16.6059 0 
634 1 -8.96617 -15.5936 0 
635 1 -8.37954 -16.551 0 
637 1 -7.25279 -16.4957 0 
639 1 -6.12488 -16.4437 0 
641 1 -4.99825 -16.3948 0 
643 1 -3.87613 -16.3479 0 
645 1 -2.75437 -16.3047 0 
647 1 -1.63235 -16.2609 0 
649 1 -0.510182 -16.2149 0 
651 1 0.611067 -16.1715 0 
653 1 1.73173 -16.1289 0 
655 1 2.85295 -16.0899 0 
657 1 3.97229 -16.0538 0 
659 1 5.09247 -16.0198 0 
661 1 6.21452 -15.9918 0 
663 1 7.33793 -15.9664 0 
665 1 8.46055 -15.9425 0 
667 1 9.58303 -15.9267 0 
669 1 10.7078 -15.9084 0 
671 1 11.8345 -15.8932 0 
673 1 12.9619 -15.8776 0 
675 1 14.0917 -15.8598 0 
677 1 15.2208 -15.8413 0 
679 1 16.3497 -15.828 0 
681 1 17.4784 -15.8129 0 
683 1 18.6066 -15.7994 0 
685 1 19.7352 -15.785 0 
687 1 20.8628 -15.7734 0 
689 1 21.9899 -15.7656 0 
691 1 23.117 -15.7612 0 
693 1 24.2456 -15.7536 0 
695 2 25.3699 -15.7527 0 
697 2 26.4989 -15.7471 0 
699 2 27.6281 -15.742 0 
701 2 -27.6483 -15.3934 0 
703 2 -26.5193 -15.357 0 
705 2 -25.3901 -15.3199 0 
707 2 -24.2607 -15.282 0 
709 1 -23.1276 -15.2398 0 
711 1 -21.9942 -15.1932 0 
713 1 -20.8613 -15.1453 0 
715 1 -19.7306 -15.0978 0 
717 1 -18.5994 -15.0515 0 
719 1 -17.466 -15.0039 0 
721 1 -16.3336 -14.9563 0 
723 1 -15.2039 -14.9082 0 
725 1 -14.0733 -14.8579 0 
727 1 -12.9416 -14.8056 0 
729 1 -11.8115 -14.7513 0 
731 1 -10.6836 -14.6965 0 
733 1 -9.55555 -14.6396 0 
636 1 -7.83881 -15.5386 0 
735 1 -8.42694 -14.5832 0 
638 1 -6.70952 -15.4849 0 
737 1 -7.30003 -14.5272 0 
640 1 -5.58272 -15.432 0 
739 1 -6.17292 -14.4706 0 
642 1 -4.45777 -15.3814 0 
644 1 -3.33349 -15.3365 0 
646 1 -2.21049 -15.2895 0 
648 1 -1.08863 -15.2424 0 
650 1 0.0333409 -15.197 0 
652 1 1.15421 -15.1539 0 
654 1 2.27639 -15.1146 0 
656 1 3.39751 -15.0743 0 
658 1 4.51702 -15.0396 0 
660 1 5.63774 -15.0089 0 
662 1 6.75955 -14.9856 0 
664 1 7.88439 -14.9631 0 
666 1 9.00958 -14.9404 0 
668 1 10.132 -14.9233 0 
670 1 11.2556 -14.9086 0 
672 1 12.3807 -14.8948 0 
674 1 13.5085 -14.8813 0 
676 1 14.6374 -14.8618 0 
678 1 15.7666 -14.8465 0 
680 1 16.8959 -14.8334 0 
682 1 18.0254 -14.8179 0 
684 1 19.1538 -14.8052 0 
686 1 20.2834 -14.7924 0 
688 1 21.4125 -14.7818 0 
690 1 22.5381 -14.7763 0 
692 1 23.6646 -14.7724 0 
694 1 24.7953 -14.7676 0 
696 2 25.9226 -14.7642 0 
698 2 27.0521 -14.7592 0 
700 2 28.1818 -14.7547 0 
702 2 -27.11 -14.4044 0 
801 2 -27.7009 -13.4516 0 
704 2 -25.9811 -14.3676 0 
803 2 -26.5724 -13.4152 0 
706 2 -24.852 -14.3301 0 
805 2 -25.4437 -13.3781 0 
708 1 -23.7208 -14.2903 0 
807 2 -24.3146 -13.3401 0 
710 1 -22.5886 -14.2459 0 
809 1 -23.1835 -13.296 0 
712 1 -21.456 -14.1983 0 
714 1 -20.3238 -14.149 0 
716 1 -19.1919 -14.1022 0 
718 1 -18.0593 -14.0558 0 
720 1 -16.9261 -14.0068 0 
722 1 -15.7942 -13.9562 0 
724 1 -14.6642 -13.9056 0 
726 1 -13.5342 -13.854 0 
728 1 -12.4043 -13.7995 0 
730 1 -11.2744 -13.7444 0 
732 1 -10.1449 -13.6879 0 
734 1 -9.01676 -13.6291 0 
736 1 -7.88973 -13.5696 0 
738 1 -6.76191 -13.5106 0 
740 1 -5.63298 -13.4551 0 
741 1 -5.04543 -14.4171 0 
742 1 -4.50543 -13.404 0 
743 1 -3.91859 -14.369 0 
744 1 -3.3818 -13.3542 0 
745 1 -2.79505 -14.3204 0 
746 1 -2.25761 -13.3046 0 
747 1 -1.67235 -14.2724 0 
749 1 -0.548912 -14.2252 0 
751 1 0.574094 -14.1779 0 
753 1 1.69642 -14.1374 0 
755 1 2.81749 -14.0981 0 
757 1 3.93939 -14.0605 0 
759 1 5.06101 -14.0275 0 
761 1 6.18343 -13.9992 0 
763 1 7.30433 -13.9802 0 
765 1 8.42796 -13.9585 0 
767 1 9.5548 -13.9373 0 
769 1 10.68 -13.9217 0 
771 1 11.8047 -13.9079 0 
773 1 12.9317 -13.896 0 
775 1 14.0589 -13.8814 0 
777 1 15.1896 -13.8653 0 
779 1 16.3178 -13.8518 0 
781 1 17.4451 -13.8383 0 
783 1 18.5738 -13.8242 0 
785 1 19.7043 -13.8132 0 
787 1 20.8348 -13.8015 0 
789 1 21.9625 -13.7909 0 
791 1 23.0899 -13.7885 0 
793 1 24.218 -13.7854 0 
795 2 25.3462 -13.7811 0 
797 2 26.4761 -13.7764 0 
799 2 27.6062 -13.772 0 
802 2 -27.164 -12.4626 0 
804 2 -26.0357 -12.4259 0 
806 2 -24.9071 -12.3884 0 
808 1 -23.7771 -12.3454 0 
810 1 -22.6462 -12.3011 0 
811 1 -22.052 -13.2507 0 
812 1 -21.5144 -12.2572 0 
813 1 -20.9192 -13.2036 0 
814 1 -20.3814 -12.2108 0 
815 1 -19.7849 -13.1558 0 
816 1 -19.2463 -12.1628 0 
817 1 -18.6501 -13.1078 0 
818 1 -18.1132 -12.1117 0 
819 1 -17.5181 -13.0586 0 
821 1 -16.3869 -13.0082 0 
823 1 -15.2567 -12.9556 0 
825 1 -14.1267 -12.9025 0 
827 1 -12.9964 -12.8489 0 
829 1 -11.8648 -12.7946 0 
831 1 -10.7336 -12.7364 0 
833 1 -9.60395 -12.6753 0 
835 1 -8.47522 -12.6131 0 
837 1 -7.34696 -12.5531 0 
839 1 -6.21736 -12.4969 0 
841 1 -5.08897 -12.4421 0 
843 1 -3.9632 -12.3885 0 
845 1 -2.83908 -12.3358 0 
748 1 -1.13437 -13.2556 0 
847 1 -1.71652 -12.2838 0 
849 1 -0.59447 -12.2358 0 
750 1 -0.011154 -13.2078 0 
851 1 0.529203 -12.1904 0 
752 1 1.11378 -13.1616 0 
853 1 1.65391 -12.142 0 
754 1 2.23573 -13.1186 0 
756 1 3.35763 -13.0808 0 
758 1 4.48126 -13.0459 0 
760 1 5.60577 -13.0177 0 
762 1 6.72888 -12.9915 0 
764 1 7.85048 -12.9724 0 
766 1 8.97497 -12.9543 0 
768 1 10.1011 -12.9348 0 
770 1 11.2243 -12.9192 0 
772 1 12.3501 -12.9086 0 
774 1 13.4787 -12.8952 0 
776 1 14.6082 -12.8833 0 
778 1 15.7395 -12.8679 0 
780 1 16.8679 -12.8552 0 
782 1 17.9941 -12.8432 0 
784 1 19.1218 -12.8318 0 
786 1 20.2521 -12.8215 0 
788 1 21.3802 -12.8111 0 
790 1 22.5106 -12.8037 0 
792 1 23.6409 -12.8004 0 
794 1 24.7707 -12.7991 0 
796 2 25.9 -12.7934 0 
798 2 27.0306 -12.7893 0 
800 2 28.1612 -12.7854 0 
901 2 -27.7557 -11.5099 0 
903 2 -26.6279 -11.4735 0 
905 2 -25.4997 -11.4364 0 
907 2 -24.3713 -11.3985 0 
909 1 -23.2399 -11.3526 0 
911 1 -22.1091 -11.308 0 
913 1 -20.9781 -11.264 0 
915 1 -19.8453 -11.2182 0 
917 1 -18.712 -11.1676 0 
820 1 -16.9817 -12.0622 0 
919 1 -17.5799 -11.1172 0 
822 1 -15.8509 -12.0093 0 
921 1 -16.4488 -11.0653 0 
824 1 -14.7203 -11.9554 0 
923 1 -15.3172 -11.011 0 
826 1 -13.588 -11.9007 0 
828 1 -12.4552 -11.846 0 
830 1 -11.3234 -11.7877 0 
832 1 -10.1924 -11.724 0 
834 1 -9.06179 -11.6606 0 
836 1 -7.93142 -11.5995 0 
838 1 -6.80224 -11.5392 0 
840 1 -5.67407 -11.4812 0 
842 1 -4.54597 -11.422 0 
844 1 -3.42222 -11.366 0 
846 1 -2.29931 -11.314 0 
848 1 -1.17604 -11.2626 0 
850 1 -0.0534044 -11.2146 0 
852 1 1.06938 -11.1673 0 
855 1 2.7768 -12.1001 0 
854 1 2.19359 -11.1222 0 
857 1 3.89879 -12.0635 0 
856 1 3.31725 -11.0819 0 
859 1 5.02439 -12.0342 0 
858 1 4.44049 -11.0517 0 
861 1 6.14925 -12.007 0 
860 1 5.56518 -11.0242 0 
863 1 7.27364 -11.986 0 
862 1 6.69164 -11.0006 0 
865 1 8.398 -11.9686 0 
864 1 7.81523 -10.9815 0 
867 1 9.52307 -11.9516 0 
869 1 10.6495 -11.9315 0 
871 1 11.7742 -11.9177 0 
873 1 12.8999 -11.9077 0 
875 1 14.0275 -11.8953 0 
877 1 15.1575 -11.8845 0 
879 1 16.2879 -11.8696 0 
881 1 17.4162 -11.8588 0 
883 1 18.5434 -11.8489 0 
885 1 19.6731 -11.8388 0 
887 1 20.8013 -11.8297 0 
889 1 21.9303 -11.8226 0 
891 1 23.0632 -11.8159 0 
893 1 24.1938 -11.8126 0 
895 2 25.3239 -11.8103 0 
897 2 26.4549 -11.8064 0 
899 2 27.586 -11.8028 0 
902 2 -27.2202 -10.5209 0 
904 2 -26.0925 -10.4842 0 
906 2 -24.9646 -10.4468 0 
908 1 -23.8353 -10.4052 0 
910 1 -22.706 -10.3598 0 
912 1 -21.5741 -10.3166 0 
914 1 -20.4406 -10.2715 0 
916 1 -19.3094 -10.2244 0 
918 1 -18.1782 -10.1734 0 
920 1 -17.0481 -10.122 0 
922 1 -15.916 -10.0676 0 
924 1 -14.7828 -10.0143 0 
925 1 -14.184 -10.957 0 
926 1 -13.6484 -9.95755 0 
927 1 -13.0502 -10.9006 0 
928 1 -12.5149 -9.89916 0 
929 1 -11.9173 -10.8424 0 
930 1 -11.3839 -9.83704 0 
931 1 -10.7859 -10.7789 0 
933 1 -9.65545 -10.7142 0 
935 1 -8.52404 -10.6507 0 
937 1 -7.39395 -10.586 0 
939 1 -6.26331 -10.5223 0 
941 1 -5.13619 -10.4611 0 
943 1 -4.0111 -10.4008 0 
945 1 -2.88624 -10.3436 0 
947 1 -1.76402 -10.2921 0 
949 1 -0.641331 -10.2432 0 
951 1 0.482719 -10.195 0 
953 1 1.60692 -10.1476 0 
955 1 2.73193 -10.1051 0 
957 1 3.85776 -10.0671 0 
959 1 4.98195 -10.0403 0 
961 1 6.10795 -10.0161 0 
963 1 7.23433 -9.99311 0 
965 1 8.36136 -9.97731 0 
866 1 8.93952 -10.966 0 
967 1 9.48536 -9.96189 0 
868 1 10.0659 -10.9491 0 
969 1 10.611 -9.94587 0 
870 1 11.1944 -10.9289 0 
971 1 11.7406 -9.92832 0 
872 1 12.3202 -10.9171 0 
973 1 12.8673 -9.91691 0 
874 1 13.4457 -10.9056 0 
975 1 13.9953 -9.90872 0 
876 1 14.5756 -10.8976 0 
977 1 15.1258 -9.90009 0 
878 1 15.7066 -10.8866 0 
979 1 16.256 -9.89068 0 
880 1 16.8377 -10.8735 0 
981 1 17.3881 -9.87788 0 
882 1 17.9669 -10.8637 0 
983 1 18.5205 -9.86931 0 
884 1 19.0954 -10.8548 0 
985 1 19.6506 -9.86 0 
886 1 20.2258 -10.8463 0 
987 1 20.7812 -9.85585 0 
888 1 21.3564 -10.8398 0 
890 1 22.4879 -10.832 0 
989 1 21.9119 -9.84829 0 
892 1 23.6209 -10.8278 0 
991 1 23.0426 -9.84487 0 
894 1 24.7492 -10.8254 0 
993 1 24.1722 -9.83952 0 
896 2 25.8793 -10.8234 0 
995 2 25.3037 -9.84035 0 
898 2 27.0108 -10.8201 0 
997 2 26.4357 -9.83726 0 
900 2 28.1423 -10.817 0 
999 2 27.5677 -9.8344 0 
1001 2 -27.8125 -9.56805 0 
1003 2 -26.6854 -9.5318 0 
1005 2 -25.5581 -9.49477 0 
1007 2 -24.4305 -9.45693 0 
1009 1 -23.3001 -9.41302 0 
1011 1 -22.1682 -9.36987 0 
1013 1 -21.0355 -9.32548 0 
1015 1 -19.9047 -9.27808 0 
1017 1 -18.7771 -9.23007 0 
1019 1 -17.6476 -9.17819 0 
1021 1 -16.5157 -9.12551 0 
1023 1 -15.3807 -9.07076 0 
1025 1 -14.2473 -9.01565 0 
1027 1 -13.1139 -8.95556 0 
1029 1 -11.9823 -8.89429 0 
932 1 -10.2513 -9.77131 0 
1031 1 -10.8479 -8.82989 0 
934 1 -9.11767 -9.70512 0 
1033 1 -9.71316 -8.76098 0 
936 1 -7.98606 -9.63574 0 
1035 1 -8.58104 -8.69025 0 
938 1 -6.85692 -9.56972 0 
940 1 -5.7293 -9.50562 0 
942 1 -4.60205 -9.44227 0 
944 1 -3.47811 -9.38216 0 
946 1 -2.35391 -9.32357 0 
948 1 -1.23173 -9.2704 0 
950 1 -0.11064 -9.22424 0 
952 1 1.01385 -9.17546 0 
954 1 2.14007 -9.12964 0 
956 1 3.2678 -9.08853 0 
958 1 4.39541 -9.05269 0 
960 1 5.51967 -9.02941 0 
962 1 6.6483 -9.00647 0 
964 1 7.77632 -8.98925 0 
966 1 8.90524 -8.9732 0 
968 1 10.0328 -8.95795 0 
970 1 11.1622 -8.94449 0 
972 1 12.2922 -8.92897 0 
974 1 13.4196 -8.91985 0 
976 1 14.5476 -8.91145 0 
978 1 15.6782 -8.90324 0 
980 1 16.8091 -8.89409 0 
982 1 17.9421 -8.88304 0 
984 1 19.0725 -8.87391 0 
986 1 20.2046 -8.86852 0 
988 1 21.3377 -8.8657 0 
990 1 22.4682 -8.8597 0 
992 1 23.5974 -8.85863 0 
994 1 24.7286 -8.85463 0 
996 2 25.8608 -8.85435 0 
998 2 26.9933 -8.85174 0 
1000 2 28.1257 -8.84931 0 
1002 2 -27.2783 -8.57905 0 
1101 2 -27.8711 -7.62598 0 
1004 2 -26.1516 -8.54247 0 
1103 2 -26.7449 -7.58983 0 
1006 2 -25.0246 -8.50509 0 
1105 2 -25.6186 -7.5529 0 
1008 1 -23.8964 -8.46646 0 
1107 2 -24.492 -7.51516 0 
1010 1 -22.7661 -8.42392 0 
1012 1 -21.6341 -8.37966 0 
1014 1 -20.5018 -8.33305 0 
1016 1 -19.3728 -8.28447 0 
1018 1 -18.2443 -8.23427 0 
1020 1 -17.1137 -8.18194 0 
1022 1 -15.9805 -8.12893 0 
1024 1 -14.8468 -8.07197 0 
1026 1 -13.715 -8.01326 0 
1028 1 -12.5826 -7.9509 0 
1030 1 -11.4488 -7.88888 0 
1032 1 -10.3142 -7.81996 0 
1034 1 -9.18241 -7.74812 0 
1036 1 -8.04938 -7.67479 0 
1037 1 -7.44992 -8.61971 0 
1038 1 -6.9192 -7.60084 0 
1039 1 -6.32081 -8.55181 0 
1041 1 -5.19322 -8.48571 0 
1043 1 -4.06617 -8.42058 0 
1045 1 -2.94292 -8.35828 0 
1047 1 -1.82009 -8.30142 0 
1049 1 -0.696321 -8.24689 0 
1051 1 0.424936 -8.2 0 
1053 1 1.54867 -8.15311 0 
1055 1 2.67364 -8.1137 0 
1057 1 3.80265 -8.07376 0 
1059 1 4.93141 -8.03996 0 
1061 1 6.05799 -8.02168 0 
1063 1 7.1872 -7.99897 0 
1065 1 8.31785 -7.98621 0 
1067 1 9.44587 -7.96951 0 
1069 1 10.5773 -7.95854 0 
1071 1 11.7096 -7.94553 0 
1073 1 12.8422 -7.93124 0 
1075 1 13.9717 -7.92276 0 
1077 1 15.1015 -7.91449 0 
1079 1 16.2315 -7.90616 0 
1081 1 17.3617 -7.89637 0 
1083 1 18.4938 -7.88817 0 
1085 1 19.6244 -7.88154 0 
1087 1 20.7563 -7.88056 0 
1089 1 21.8902 -7.87609 0 
1091 1 23.0227 -7.87466 0 
1093 1 24.1515 -7.87156 0 
1095 2 25.2861 -7.87134 0 
1097 2 26.419 -7.86899 0 
1099 2 27.5519 -7.8668 0 
1102 2 -27.3381 -6.63684 0 
1104 2 -26.2124 -6.60035 0 
1106 2 -25.0865 -6.56307 0 
1108 1 -23.9609 -6.52574 0 
1109 1 -23.3633 -7.47607 0 
1110 1 -22.8331 -6.48341 0 
1111 1 -22.2331 -7.43236 0 
1112 1 -21.7023 -6.44039 0 
1113 1 -21.1016 -7.38833 0 
1114 1 -20.5717 -6.39475 0 
1115 1 -19.9714 -7.33941 0 
1116 1 -19.4426 -6.34444 0 
1117 1 -18.8433 -7.2902 0 
1119 1 -17.7129 -7.23742 0 
1121 1 -16.5818 -7.18515 0 
1123 1 -15.4498 -7.12974 0 
1125 1 -14.3186 -7.07023 0 
1127 1 -13.187 -7.01019 0 
1129 1 -12.0531 -6.94722 0 
1131 1 -10.9194 -6.88122 0 
1133 1 -9.78586 -6.80853 0 
1135 1 -8.65151 -6.73413 0 
1137 1 -7.51963 -6.65507 0 
1139 1 -6.38914 -6.58029 0 
1040 1 -5.78926 -7.53006 0 
1141 1 -5.26059 -6.50555 0 
1042 1 -4.66136 -7.46397 0 
1143 1 -4.13603 -6.43046 0 
1044 1 -3.5374 -7.39359 0 
1046 1 -2.41173 -7.33313 0 
1048 1 -1.2877 -7.27755 0 
1050 1 -0.164094 -7.22431 0 
1052 1 0.960413 -7.17534 0 
1054 1 2.08668 -7.13045 0 
1056 1 3.2123 -7.09713 0 
1058 1 4.34061 -7.05866 0 
1060 1 5.46974 -7.03165 0 
1062 1 6.59825 -7.01153 0 
1064 1 7.72953 -6.99579 0 
1066 1 8.86061 -6.98052 0 
1068 1 9.99083 -6.9696 0 
1070 1 11.1244 -6.95955 0 
1072 1 12.2558 -6.94684 0 
1074 1 13.3895 -6.93408 0 
1076 1 14.5219 -6.92574 0 
1078 1 15.6516 -6.91742 0 
1080 1 16.7826 -6.90969 0 
1082 1 17.9147 -6.90155 0 
1084 1 19.0465 -6.89747 0 
1086 1 20.18 -6.89274 0 
1088 1 21.3124 -6.89227 0 
1090 1 22.446 -6.88969 0 
1092 1 23.5792 -6.88789 0 
1094 1 24.7132 -6.88725 0 
1096 2 25.8451 -6.88616 0 
1098 2 26.9784 -6.88422 0 
1100 2 28.1116 -6.88241 0 
1201 2 -27.9311 -5.68349 0 
1203 2 -26.806 -5.64742 0 