ITEM: TIMESTEP
2300
ITEM: NUMBER OF ATOMS
2850
ITEM: BOX BOUNDS ff ff pp
-42.092 42.092
-42.092 42.092
-0.280613 0.280613
ITEM: ATOMS id type xu yu zu 
1 2 -27.3398 -28.9988 0 
3 2 -26.2107 -28.9642 0 
5 2 -25.0816 -28.9291 0 
7 2 -23.9525 -28.8936 0 
9 2 -22.8235 -28.8577 0 
11 2 -21.6944 -28.8213 0 
13 2 -20.5655 -28.7844 0 
15 2 -19.4366 -28.7472 0 
17 2 -18.3079 -28.7095 0 
19 2 -17.1793 -28.6715 0 
21 2 -16.0508 -28.6331 0 
23 2 -14.9226 -28.5944 0 
25 2 -13.7947 -28.5554 0 
27 2 -12.667 -28.5163 0 
29 2 -11.5396 -28.477 0 
31 2 -10.4126 -28.4376 0 
33 2 -9.28592 -28.3982 0 
35 2 -8.15967 -28.3589 0 
37 2 -7.03386 -28.3198 0 
39 2 -5.90848 -28.281 0 
2 2 -26.7941 -28.0086 0 
4 2 -25.6649 -27.9736 0 
6 2 -24.5357 -27.9381 0 
8 2 -23.4065 -27.902 0 
10 2 -22.2773 -27.8656 0 
12 2 -21.1481 -27.8286 0 
14 2 -20.019 -27.7912 0 
16 2 -18.89 -27.7533 0 
18 2 -17.7611 -27.715 0 
20 2 -16.6324 -27.6763 0 
22 2 -15.5039 -27.6373 0 
24 2 -14.3755 -27.5979 0 
26 2 -13.2475 -27.5582 0 
28 2 -12.1197 -27.5183 0 
30 2 -10.9923 -27.4783 0 
32 2 -9.86522 -27.4382 0 
34 2 -8.73856 -27.3981 0 
36 2 -7.61233 -27.3581 0 
38 2 -6.48656 -27.3184 0 
40 2 -5.36126 -27.2789 0 
41 2 -4.78357 -28.2426 0 
42 2 -4.23645 -27.24 0 
43 2 -3.65912 -28.2046 0 
44 2 -3.11213 -27.2015 0 
45 2 -2.53513 -28.1673 0 
46 2 -1.98828 -27.1638 0 
47 2 -1.41159 -28.1307 0 
48 2 -0.8649 -27.1269 0 
49 2 -0.288464 -28.095 0 
51 2 0.834263 -28.0602 0 
53 2 1.95663 -28.0264 0 
55 2 3.07869 -27.9937 0 
57 2 4.20048 -27.9622 0 
59 2 5.32207 -27.9319 0 
61 2 6.4435 -27.9029 0 
63 2 7.56483 -27.8752 0 
65 2 8.68613 -27.8488 0 
67 2 9.80743 -27.8237 0 
69 2 10.9288 -27.8 0 
71 2 12.0503 -27.7775 0 
73 2 13.1719 -27.7563 0 
75 2 14.2937 -27.7363 0 
77 2 15.4157 -27.7174 0 
79 2 16.538 -27.6997 0 
81 2 17.6605 -27.683 0 
83 2 18.7832 -27.6673 0 
85 2 19.9063 -27.6526 0 
87 2 21.0296 -27.6388 0 
89 2 22.1532 -27.6258 0 
91 2 23.2771 -27.6136 0 
93 2 24.4012 -27.6022 0 
95 2 25.5256 -27.5914 0 
97 2 26.6503 -27.5812 0 
99 2 27.7752 -27.5717 0 
101 2 -27.378 -27.0533 0 
103 2 -26.2487 -27.0183 0 
102 2 -26.833 -26.0633 0 
105 2 -25.1194 -26.9828 0 
104 2 -25.7037 -26.0278 0 
107 2 -23.9901 -26.9468 0 
106 2 -24.5742 -25.9918 0 
109 2 -22.8607 -26.9102 0 
108 1 -23.4446 -25.9553 0 
111 2 -21.7314 -26.8732 0 
113 2 -20.6021 -26.8357 0 
115 2 -19.4729 -26.7977 0 
117 2 -18.3437 -26.7591 0 
119 2 -17.2147 -26.7202 0 
121 2 -16.0858 -26.6808 0 
123 2 -14.9572 -26.641 0 
125 2 -13.8287 -26.6009 0 
127 2 -12.7006 -26.5605 0 
129 2 -11.5727 -26.5198 0 
131 2 -10.4452 -26.479 0 
133 2 -9.31813 -26.4382 0 
135 2 -8.19146 -26.3973 0 
137 2 -7.06526 -26.3566 0 
139 2 -5.93954 -26.3162 0 
141 2 -4.81433 -26.2762 0 
143 2 -3.68963 -26.2366 0 
145 2 -2.56545 -26.1977 0 
147 2 -1.44177 -26.1596 0 
50 2 0.258046 -27.0909 0 
149 2 -0.318563 -26.1224 0 
52 2 1.38059 -27.056 0 
151 2 0.804196 -26.0862 0 
54 2 2.50279 -27.0222 0 
153 2 1.92656 -26.0512 0 
56 2 3.62468 -26.9896 0 
155 2 3.04857 -26.0174 0 
58 2 4.74633 -26.9582 0 
157 2 4.1703 -25.9849 0 
60 2 5.86779 -26.9282 0 
159 2 5.2918 -25.9538 0 
62 2 6.98913 -26.8996 0 
64 2 8.11041 -26.8723 0 
66 2 9.23169 -26.8465 0 
68 2 10.353 -26.822 0 
70 2 11.4745 -26.7989 0 
72 2 12.596 -26.7771 0 
74 2 13.7178 -26.7566 0 
76 2 14.8398 -26.7373 0 
78 2 15.962 -26.7192 0 
80 2 17.0845 -26.7023 0 
82 2 18.2073 -26.6863 0 
84 2 19.3304 -26.6714 0 
86 2 20.4538 -26.6575 0 
88 2 21.5774 -26.6444 0 
90 2 22.7014 -26.6321 0 
92 2 23.8256 -26.6206 0 
94 2 24.9501 -26.6098 0 
96 2 26.0749 -26.5996 0 
98 2 27.2 -26.5901 0 
100 2 28.3253 -26.5811 0 
201 2 -27.4179 -25.1085 0 
203 2 -26.2885 -25.0731 0 
205 2 -25.159 -25.0372 0 
207 2 -24.0295 -25.0007 0 
209 1 -22.8993 -24.9631 0 
110 1 -22.3143 -25.9178 0 
211 1 -21.7693 -24.925 0 
112 1 -21.1841 -25.8799 0 
213 1 -20.6391 -24.8864 0 
114 1 -20.0547 -25.8417 0 
215 1 -19.5096 -24.847 0 
116 1 -18.9257 -25.8026 0 
217 1 -18.3807 -24.8072 0 
118 1 -17.7965 -25.7634 0 
120 1 -16.6679 -25.7224 0 
122 1 -15.5395 -25.6821 0 
124 1 -14.4106 -25.6413 0 
126 1 -13.2828 -25.5997 0 
128 1 -12.156 -25.5588 0 
130 1 -11.0285 -25.5172 0 
132 1 -9.90186 -25.475 0 
134 1 -8.77536 -25.4343 0 
136 1 -7.64869 -25.3931 0 
138 1 -6.52387 -25.3519 0 
140 1 -5.39871 -25.3116 0 
142 1 -4.27416 -25.2702 0 
144 1 -3.15004 -25.2308 0 
146 1 -2.02604 -25.1924 0 
148 1 -0.90321 -25.1537 0 
150 1 0.219345 -25.1182 0 
152 1 1.3421 -25.0817 0 
154 1 2.46527 -25.0463 0 
156 1 3.58782 -25.0126 0 
158 1 4.70933 -24.981 0 
160 1 5.83062 -24.9506 0 
161 2 6.41316 -25.9242 0 
162 1 6.95242 -24.9219 0 
163 2 7.53443 -25.896 0 
164 1 8.07441 -24.8942 0 
165 2 8.65568 -25.8693 0 
167 2 9.77697 -25.844 0 
166 1 9.19615 -24.8675 0 
169 2 10.8984 -25.8202 0 
168 1 10.3185 -24.8439 0 
171 2 12.0199 -25.7978 0 
170 1 11.4405 -24.8212 0 
173 2 13.1416 -25.7768 0 
175 2 14.2636 -25.7571 0 
177 2 15.3858 -25.7386 0 
179 2 16.5083 -25.7213 0 
181 2 17.6311 -25.7052 0 
183 2 18.7543 -25.6901 0 
185 2 19.8777 -25.6759 0 
187 2 21.0014 -25.6627 0 
189 2 22.1254 -25.6504 0 
191 2 23.2498 -25.6388 0 
193 2 24.3744 -25.628 0 
195 2 25.4993 -25.6179 0 
197 2 26.6245 -25.6084 0 
199 2 27.75 -25.5994 0 
202 2 -26.8739 -24.1187 0 
204 2 -25.7444 -24.0828 0 
206 2 -24.6148 -24.0464 0 
208 1 -23.484 -24.0084 0 
210 1 -22.354 -23.9701 0 
212 1 -21.2234 -23.9318 0 
214 1 -20.0932 -23.8919 0 
216 1 -18.9641 -23.8509 0 
219 1 -17.2517 -24.7655 0 
218 1 -17.8358 -23.81 0 
221 1 -16.1226 -24.7244 0 
220 1 -16.7068 -23.7678 0 
222 1 -15.5775 -23.7264 0 
223 1 -14.9935 -24.6833 0 
224 1 -14.4493 -23.6833 0 
225 1 -13.865 -24.6404 0 
227 1 -12.7387 -24.5983 0 
229 1 -11.6121 -24.5572 0 
231 1 -10.4854 -24.5134 0 
233 1 -9.35945 -24.4719 0 
235 1 -8.23344 -24.4314 0 
237 1 -7.10815 -24.3876 0 
239 1 -5.98294 -24.3472 0 
241 1 -4.85817 -24.3053 0 
243 1 -3.73365 -24.2643 0 
245 1 -2.60942 -24.2258 0 
247 1 -1.48718 -24.1854 0 
249 1 -0.363529 -24.1488 0 
251 1 0.75915 -24.1125 0 
253 1 1.88174 -24.0771 0 
255 1 3.00418 -24.0419 0 
257 1 4.12685 -24.0085 0 
259 1 5.24931 -23.9779 0 
261 1 6.37088 -23.9482 0 
263 1 7.49245 -23.9203 0 
265 1 8.61419 -23.8924 0 
267 1 9.73692 -23.8677 0 
269 1 10.8593 -23.8447 0 
271 1 11.9822 -23.8218 0 
172 1 12.563 -24.7993 0 
273 1 13.1052 -23.8011 0 
174 1 13.6866 -24.7781 0 
275 1 14.2293 -23.7805 0 
176 1 14.809 -24.7601 0 
277 1 15.3531 -23.7626 0 
178 1 15.9315 -24.7415 0 
279 1 16.4777 -23.7454 0 
180 1 17.055 -24.726 0 
281 1 17.6007 -23.7297 0 
182 1 18.1785 -24.7102 0 
283 1 18.7244 -23.7154 0 
184 1 19.3024 -24.6962 0 
285 1 19.8488 -23.7003 0 
186 1 20.4259 -24.6812 0 
287 1 20.974 -23.6877 0 
188 1 21.5499 -24.6686 0 
289 1 22.0984 -23.6751 0 
190 1 22.6741 -24.6564 0 
291 1 23.2231 -23.6643 0 
192 1 23.799 -24.6471 0 
293 1 24.3475 -23.6547 0 
194 1 24.9239 -24.6362 0 
295 2 25.4729 -23.6443 0 
196 2 26.0488 -24.6264 0 
198 2 27.1745 -24.6176 0 
200 2 28.3003 -24.6093 0 
301 2 -27.4598 -23.1644 0 
303 2 -26.3303 -23.1287 0 
305 2 -25.2007 -23.0924 0 
307 2 -24.071 -23.0555 0 
309 1 -22.9394 -23.0159 0 
311 1 -21.8091 -22.9773 0 
313 1 -20.679 -22.9375 0 
315 1 -19.5489 -22.8958 0 
317 1 -18.4198 -22.8543 0 
319 1 -17.2914 -22.8122 0 
321 1 -16.1626 -22.7702 0 
323 1 -15.0344 -22.7263 0 
226 1 -13.3215 -23.6385 0 
325 1 -13.9062 -22.6819 0 
327 1 -12.777 -22.6369 0 
228 1 -12.1951 -23.5971 0 
329 1 -11.6507 -22.5942 0 
230 1 -11.0688 -23.5543 0 
331 1 -10.5254 -22.5502 0 
232 1 -9.94235 -23.5101 0 
333 1 -9.39908 -22.5067 0 
234 1 -8.8162 -23.4688 0 
236 1 -7.69145 -23.4247 0 
238 1 -6.5659 -23.3825 0 
240 1 -5.4414 -23.3408 0 
242 1 -4.31719 -23.2995 0 
244 1 -3.1925 -23.2598 0 
246 1 -2.06951 -23.2178 0 
248 1 -0.946048 -23.1802 0 
250 1 0.176776 -23.1426 0 
252 1 1.30009 -23.1064 0 
254 1 2.42294 -23.0713 0 
256 1 3.54515 -23.0366 0 
258 1 4.6676 -23.0047 0 
260 1 5.78955 -22.9742 0 
262 1 6.91138 -22.9453 0 
264 1 8.03317 -22.9169 0 
266 1 9.15625 -22.8923 0 
268 1 10.2791 -22.8676 0 
270 1 11.4014 -22.8445 0 
272 1 12.5247 -22.8224 0 
274 1 13.6484 -22.8033 0 
276 1 14.7728 -22.7833 0 
278 1 15.8973 -22.7656 0 
280 1 17.0217 -22.7481 0 
282 1 18.1457 -22.7336 0 
284 1 19.27 -22.7196 0 
286 1 20.3957 -22.7065 0 
288 1 21.5201 -22.6939 0 
290 1 22.6451 -22.6823 0 
292 1 23.771 -22.6721 0 
294 1 24.8973 -22.6631 0 
297 2 26.5987 -23.6355 0 
296 2 26.0228 -22.6533 0 
299 2 27.7248 -23.6273 0 
298 2 27.149 -22.6452 0 
300 2 28.2755 -22.6376 0 
302 2 -26.9167 -22.1747 0 
304 2 -25.7871 -22.1385 0 
306 2 -24.6574 -22.1018 0 
308 1 -23.5267 -22.0634 0 
310 1 -22.3961 -22.0234 0 
312 1 -21.2657 -21.9832 0 
314 1 -20.1359 -21.9423 0 
316 1 -19.006 -21.8999 0 
318 1 -17.8764 -21.8574 0 
320 1 -16.7466 -21.8144 0 
322 1 -15.6181 -21.7698 0 
324 1 -14.491 -21.7247 0 
326 1 -13.363 -21.6809 0 
328 1 -12.2343 -21.6345 0 
330 1 -11.1078 -21.5896 0 
332 1 -9.98226 -21.547 0 
334 1 -8.85685 -21.5006 0 
335 1 -8.27425 -22.462 0 
336 1 -7.73172 -21.4566 0 
337 1 -7.14878 -22.4191 0 
338 1 -6.60713 -21.4133 0 
339 1 -6.02384 -22.3761 0 
340 1 -5.48239 -21.3692 0 
341 1 -4.89998 -22.3342 0 
343 1 -3.77623 -22.2934 0 
345 1 -2.65313 -22.2512 0 
347 1 -1.52877 -22.2115 0 
349 1 -0.404929 -22.1731 0 
351 1 0.718319 -22.1365 0 
353 1 1.84141 -22.1004 0 
355 1 2.96303 -22.0647 0 
357 1 4.0851 -22.0313 0 
359 1 5.20726 -21.9996 0 
361 1 6.32997 -21.97 0 
363 1 7.45296 -21.9417 0 
365 1 8.57651 -21.9156 0 
367 1 9.69889 -21.8906 0 
369 1 10.8222 -21.8664 0 
371 1 11.9456 -21.8444 0 
373 1 13.0693 -21.8245 0 
375 1 14.1929 -21.805 0 
377 1 15.3173 -21.7863 0 
379 1 16.442 -21.7683 0 
381 1 17.567 -21.7524 0 
383 1 18.6922 -21.7381 0 
385 1 19.8174 -21.7255 0 
387 1 20.943 -21.7121 0 
389 1 22.0685 -21.7006 0 
391 1 23.1945 -21.6898 0 
393 1 24.3208 -21.6803 0 
395 2 25.4466 -21.6709 0 
397 2 26.573 -21.6629 0 
399 2 27.6998 -21.6554 0 
401 2 -27.5037 -21.2208 0 
403 2 -26.3741 -21.1849 0 
402 2 -26.9617 -20.2313 0 
405 2 -25.2445 -21.1483 0 
404 2 -25.8321 -20.1949 0 
407 2 -24.1147 -21.111 0 
409 1 -22.984 -21.0704 0 
411 1 -21.8526 -21.0301 0 
413 1 -20.722 -20.9879 0 
415 1 -19.5921 -20.9465 0 
417 1 -18.4618 -20.904 0 
419 1 -17.3323 -20.86 0 
421 1 -16.2033 -20.8153 0 
423 1 -15.0746 -20.7687 0 
425 1 -13.9464 -20.7242 0 
427 1 -12.8194 -20.6786 0 
429 1 -11.6912 -20.6315 0 
431 1 -10.5644 -20.5859 0 
433 1 -9.44004 -20.5408 0 
435 1 -8.31338 -20.4946 0 
437 1 -7.18818 -20.4497 0 
439 1 -6.06402 -20.4063 0 
342 1 -4.35871 -21.3268 0 
441 1 -4.93978 -20.3616 0 
344 1 -3.23551 -21.2841 0 
443 1 -3.81682 -20.3179 0 
346 1 -2.11142 -21.2432 0 
445 1 -2.69277 -20.2763 0 
348 1 -0.987435 -21.2047 0 
447 1 -1.56922 -20.2362 0 
350 1 0.136239 -21.1665 0 
352 1 1.25881 -21.1302 0 
354 1 2.38123 -21.0928 0 
356 1 3.50392 -21.0583 0 
358 1 4.62612 -21.0252 0 
360 1 5.74854 -20.9947 0 
362 1 6.8717 -20.9662 0 
364 1 7.99493 -20.9396 0 
366 1 9.11761 -20.9132 0 
368 1 10.2412 -20.8891 0 
370 1 11.3656 -20.8661 0 
372 1 12.4902 -20.8457 0 
374 1 13.6138 -20.826 0 
376 1 14.738 -20.8066 0 
378 1 15.8624 -20.7892 0 
380 1 16.9878 -20.7725 0 
382 1 18.1133 -20.7578 0 
384 1 19.2395 -20.7436 0 
386 1 20.3654 -20.7311 0 
388 1 21.4922 -20.7188 0 
390 1 22.6181 -20.7076 0 
392 1 23.7445 -20.6978 0 
394 1 24.8709 -20.6884 0 
396 2 25.9969 -20.6804 0 
398 2 27.1238 -20.673 0 
400 2 28.251 -20.6661 0 
501 2 -27.5497 -19.2779 0 
503 2 -26.4202 -19.2417 0 
505 2 -25.2906 -19.2049 0 
406 2 -24.7023 -20.1579 0 
507 2 -24.1608 -19.1673 0 
408 1 -23.5719 -20.1181 0 
509 1 -23.0295 -19.1264 0 
410 1 -22.4413 -20.0782 0 
511 1 -21.8982 -19.0852 0 
412 1 -21.31 -20.0358 0 
513 1 -20.767 -19.0416 0 
414 1 -20.1786 -19.9928 0 
416 1 -19.0482 -19.9506 0 
418 1 -17.9184 -19.9066 0 
420 1 -16.7897 -19.8613 0 
422 1 -15.6607 -19.8153 0 
424 1 -14.5306 -19.7689 0 
426 1 -13.403 -19.7223 0 
428 1 -12.2758 -19.6764 0 
430 1 -11.1483 -19.6276 0 
432 1 -10.0226 -19.5788 0 
434 1 -8.89675 -19.534 0 
436 1 -7.77069 -19.4869 0 
438 1 -6.64561 -19.4421 0 
440 1 -5.52156 -19.3979 0 
442 1 -4.39812 -19.3523 0 
444 1 -3.27427 -19.3106 0 
446 1 -2.15101 -19.2685 0 
448 1 -1.02769 -19.2275 0 
449 1 -0.446491 -20.1972 0 
450 1 0.0954308 -19.1883 0 
451 1 0.676744 -20.1585 0 
452 1 1.21856 -19.1495 0 
453 1 1.79971 -20.1215 0 
454 1 2.34059 -19.1125 0 
455 1 2.92303 -20.0855 0 
456 1 3.46341 -19.0779 0 
457 1 4.04582 -20.0512 0 
459 1 5.16758 -20.0195 0 
461 1 6.2899 -19.9906 0 
463 1 7.41351 -19.9631 0 
465 1 8.53713 -19.9363 0 
467 1 9.66089 -19.9115 0 
469 1 10.7845 -19.8877 0 
471 1 11.9093 -19.8672 0 
473 1 13.0341 -19.8465 0 
475 1 14.1582 -19.828 0 
477 1 15.2829 -19.8087 0 
479 1 16.408 -19.7924 0 
481 1 17.5341 -19.7771 0 
483 1 18.6604 -19.7633 0 
485 1 19.7868 -19.7499 0 
487 1 20.9135 -19.7381 0 
489 1 22.0402 -19.7252 0 
491 1 23.1671 -19.7154 0 
493 1 24.2941 -19.7059 0 
495 2 25.4205 -19.6978 0 
497 2 26.5477 -19.6905 0 
499 2 27.6751 -19.6838 0 
502 2 -27.0088 -18.2886 0 
504 2 -25.8793 -18.252 0 
506 2 -24.7497 -18.2147 0 
508 1 -23.6187 -18.1758 0 
510 1 -22.4878 -18.1343 0 
512 1 -21.3568 -18.0911 0 
514 1 -20.2252 -18.047 0 
515 1 -19.6361 -18.9976 0 
516 1 -19.094 -18.0029 0 
517 1 -18.5051 -18.9543 0 
518 1 -17.9637 -17.9561 0 
519 1 -17.3757 -18.9077 0 
520 1 -16.8331 -17.9085 0 
521 1 -16.2468 -18.8613 0 
523 1 -15.1171 -18.8154 0 
525 1 -13.9876 -18.7662 0 
527 1 -12.8594 -18.72 0 
529 1 -11.7325 -18.6717 0 
531 1 -10.6055 -18.6198 0 
533 1 -9.47832 -18.5722 0 
535 1 -8.35358 -18.5257 0 
537 1 -7.22897 -18.4788 0 
539 1 -6.10433 -18.4336 0 
541 1 -4.97971 -18.3873 0 
543 1 -3.85424 -18.3439 0 
545 1 -2.73142 -18.3001 0 
547 1 -1.60901 -18.2586 0 
549 1 -0.485608 -18.218 0 
551 1 0.637028 -18.1783 0 
553 1 1.7597 -18.1402 0 
555 1 2.88337 -18.1039 0 
557 1 4.00632 -18.0695 0 
458 1 4.58661 -19.0446 0 
559 1 5.1294 -18.0375 0 
460 1 5.70921 -19.0145 0 
561 1 6.25264 -18.0089 0 
462 1 6.83205 -18.986 0 
563 1 7.37593 -17.9806 0 
464 1 7.95469 -18.9593 0 
565 1 8.49901 -17.9556 0 
466 1 9.07842 -18.9337 0 
567 1 9.62362 -17.9314 0 
468 1 10.2025 -18.9095 0 
569 1 10.7488 -17.9098 0 
470 1 11.328 -18.8884 0 
472 1 12.4534 -18.868 0 
474 1 13.5785 -18.8479 0 
476 1 14.7028 -18.8296 0 
478 1 15.8286 -18.8119 0 
480 1 16.9549 -18.7963 0 
482 1 18.0812 -18.7824 0 
484 1 19.2073 -18.7689 0 
486 1 20.3343 -18.7567 0 
488 1 21.461 -18.7442 0 
490 1 22.5887 -18.7327 0 
492 1 23.716 -18.7238 0 
494 1 24.8435 -18.7151 0 
496 2 25.9714 -18.7078 0 
498 2 27.0991 -18.7012 0 
500 2 28.2271 -18.6951 0 
601 2 -27.5979 -17.3354 0 
603 2 -26.4686 -17.2992 0 
605 2 -25.3391 -17.2621 0 
607 2 -24.2094 -17.2244 0 
609 1 -23.0778 -17.1835 0 
611 1 -21.9471 -17.1402 0 
613 1 -20.8155 -17.0971 0 
615 1 -19.6835 -17.0518 0 
617 1 -18.553 -17.0054 0 
619 1 -17.4222 -16.9584 0 
522 1 -15.7029 -17.8613 0 
621 1 -16.2908 -16.9097 0 
524 1 -14.5744 -17.8128 0 
623 1 -15.1619 -16.8594 0 
526 1 -13.4445 -17.7643 0 
625 1 -14.033 -16.8117 0 
528 1 -12.3165 -17.715 0 
627 1 -12.9043 -16.7608 0 
530 1 -11.19 -17.6637 0 
532 1 -10.0614 -17.6141 0 
534 1 -8.9349 -17.5648 0 
536 1 -7.81022 -17.5169 0 
538 1 -6.6852 -17.4699 0 
540 1 -5.56098 -17.4222 0 
542 1 -4.4358 -17.3779 0 
544 1 -3.31236 -17.3316 0 
546 1 -2.18909 -17.2891 0 
548 1 -1.0663 -17.2478 0 
550 1 0.0566227 -17.2065 0 
552 1 1.18017 -17.1674 0 
554 1 2.30257 -17.1306 0 
556 1 3.42504 -17.0943 0 
558 1 4.54743 -17.0611 0 
560 1 5.67111 -17.0314 0 
562 1 6.79589 -17.0033 0 
564 1 7.92043 -16.9767 0 
566 1 9.04471 -16.9529 0 
568 1 10.1696 -16.9301 0 
571 1 11.8742 -17.8891 0 
570 1 11.2947 -16.9097 0 
573 1 12.9995 -17.8694 0 
572 1 12.4199 -16.8898 0 
575 1 14.1248 -17.8498 0 
574 1 13.5455 -16.8705 0 
577 1 15.2503 -17.8316 0 
576 1 14.6714 -16.8523 0 
579 1 16.376 -17.8162 0 
578 1 15.7979 -16.8352 0 
581 1 17.5024 -17.8019 0 
580 1 16.9242 -16.8214 0 
583 1 18.6287 -17.7874 0 
582 1 18.0507 -16.8071 0 
585 1 19.7552 -17.7753 0 
584 1 19.178 -16.7934 0 
587 1 20.8815 -17.7622 0 
586 1 20.3041 -16.7808 0 
589 1 22.0093 -17.7519 0 
588 1 21.4313 -16.7701 0 
591 1 23.1384 -17.7419 0 
590 1 22.5596 -16.7614 0 
593 1 24.2665 -17.7332 0 
592 1 23.689 -16.752 0 
595 2 25.3948 -17.725 0 
594 1 24.8182 -16.7432 0 
596 2 25.9465 -16.7357 0 
597 2 26.5229 -17.7186 0 
598 2 27.0751 -16.7299 0 
599 2 27.6512 -17.7126 0 
600 2 28.2039 -16.7246 0 
602 2 -27.0583 -16.3463 0 
604 2 -25.929 -16.3096 0 
606 2 -24.7995 -16.2721 0 
608 1 -23.6679 -16.2326 0 
610 1 -22.5373 -16.1897 0 
612 1 -21.4065 -16.1464 0 
614 1 -20.275 -16.1023 0 
616 1 -19.143 -16.0549 0 
618 1 -18.012 -16.0077 0 
620 1 -16.8819 -15.9601 0 
622 1 -15.752 -15.9087 0 
624 1 -14.6215 -15.8592 0 
626 1 -13.4924 -15.8084 0 
628 1 -12.3643 -15.7551 0 
629 1 -11.7766 -16.7081 0 
630 1 -11.2346 -15.7033 0 
631 1 -10.648 -16.6584 0 
632 1 -10.107 -15.6505 0 
633 1 -9.52028 -16.6068 0 
634 1 -8.98011 -15.5975 0 
635 1 -8.39419 -16.5561 0 
637 1 -7.26886 -16.5079 0 
639 1 -6.14397 -16.4582 0 
641 1 -5.01853 -16.412 0 
643 1 -3.89538 -16.3644 0 
645 1 -2.77151 -16.3207 0 
647 1 -1.64836 -16.2774 0 
649 1 -0.525104 -16.2354 0 
651 1 0.598527 -16.1954 0 
653 1 1.72111 -16.1558 0 
655 1 2.84328 -16.1193 0 
657 1 3.96636 -16.0851 0 
659 1 5.09033 -16.054 0 
661 1 6.21365 -16.0258 0 
663 1 7.33726 -15.9982 0 
665 1 8.46149 -15.9735 0 
667 1 9.58655 -15.9506 0 
669 1 10.7125 -15.9298 0 
671 1 11.8392 -15.9099 0 
673 1 12.9651 -15.8909 0 
675 1 14.0914 -15.8716 0 
677 1 15.2176 -15.8553 0 
679 1 16.3446 -15.8396 0 
681 1 17.4716 -15.8262 0 
683 1 18.5992 -15.8122 0 
685 1 19.7262 -15.7993 0 
687 1 20.8535 -15.7886 0 
689 1 21.9823 -15.7794 0 
691 1 23.111 -15.7707 0 
693 1 24.2402 -15.7619 0 
695 2 25.3699 -15.7527 0 
697 2 26.4989 -15.7471 0 
699 2 27.6281 -15.742 0 
701 2 -27.6483 -15.3934 0 
703 2 -26.5193 -15.357 0 
705 2 -25.3901 -15.3199 0 
707 2 -24.2607 -15.282 0 
709 1 -23.1295 -15.2401 0 
711 1 -21.9987 -15.1965 0 
713 1 -20.867 -15.1525 0 
715 1 -19.7357 -15.1065 0 
717 1 -18.6036 -15.058 0 
719 1 -17.4725 -15.0092 0 
721 1 -16.3427 -14.9588 0 
723 1 -15.2111 -14.9087 0 
725 1 -14.0802 -14.8564 0 
727 1 -12.952 -14.8019 0 
729 1 -11.8231 -14.7504 0 
731 1 -10.6943 -14.6955 0 
733 1 -9.56636 -14.641 0 
636 1 -7.85364 -15.5461 0 
735 1 -8.43875 -14.5872 0 
638 1 -6.72842 -15.4957 0 
737 1 -7.31186 -14.5343 0 
640 1 -5.60253 -15.4476 0 
739 1 -6.1854 -14.4839 0 
642 1 -4.47813 -15.3984 0 
644 1 -3.35323 -15.3528 0 
646 1 -2.23017 -15.3075 0 
648 1 -1.1071 -15.2643 0 
650 1 0.0164285 -15.2232 0 
652 1 1.14041 -15.1821 0 
654 1 2.26396 -15.1439 0 
656 1 3.38706 -15.1087 0 
658 1 4.50982 -15.076 0 
660 1 5.63261 -15.0462 0 
662 1 6.75664 -15.0197 0 
664 1 7.88194 -14.994 0 
666 1 9.00758 -14.9706 0 
668 1 10.1333 -14.949 0 
670 1 11.2594 -14.9301 0 
672 1 12.3859 -14.9101 0 
674 1 13.5121 -14.8921 0 
676 1 14.639 -14.8738 0 
678 1 15.7653 -14.8583 0 
680 1 16.8929 -14.8442 0 
682 1 18.0199 -14.8309 0 
684 1 19.1479 -14.8177 0 
686 1 20.2762 -14.8067 0 
688 1 21.405 -14.7972 0 
690 1 22.534 -14.7884 0 
692 1 23.6634 -14.7799 0 
694 1 24.7925 -14.7715 0 
696 2 25.9226 -14.7642 0 
698 2 27.0521 -14.7592 0 
700 2 28.1818 -14.7547 0 
702 2 -27.11 -14.4044 0 
801 2 -27.7009 -13.4516 0 
704 2 -25.9811 -14.3676 0 
803 2 -26.5724 -13.4152 0 
706 2 -24.852 -14.3301 0 
805 2 -25.4437 -13.3781 0 
708 1 -23.7213 -14.2903 0 
807 2 -24.3146 -13.3401 0 
710 1 -22.5903 -14.2475 0 
809 1 -23.1834 -13.2979 0 
712 1 -21.4591 -14.2034 0 
714 1 -20.3281 -14.1577 0 
716 1 -19.1968 -14.1105 0 
718 1 -18.0647 -14.0608 0 
720 1 -16.9337 -14.009 0 
722 1 -15.8021 -13.9586 0 
724 1 -14.6716 -13.9065 0 
726 1 -13.5421 -13.8508 0 
728 1 -12.411 -13.7977 0 
730 1 -11.282 -13.7428 0 
732 1 -10.153 -13.6867 0 
734 1 -9.0248 -13.6316 0 
736 1 -7.8976 -13.5765 0 
738 1 -6.77029 -13.5237 0 
740 1 -5.64498 -13.4696 0 
741 1 -5.06123 -14.4337 0 
742 1 -4.51989 -13.4213 0 
743 1 -3.93598 -14.3864 0 
744 1 -3.39499 -13.3719 0 
745 1 -2.81159 -14.3387 0 
746 1 -2.27133 -13.3244 0 
747 1 -1.68742 -14.2935 0 
749 1 -0.564001 -14.2502 0 
751 1 0.558618 -14.2086 0 
753 1 1.68137 -14.1686 0 
755 1 2.80422 -14.1322 0 
757 1 3.92755 -14.0982 0 
759 1 5.0517 -14.067 0 
761 1 6.17592 -14.0393 0 
763 1 7.30025 -14.014 0 
765 1 8.42542 -13.9905 0 
767 1 9.55144 -13.9685 0 
769 1 10.6786 -13.9486 0 
771 1 11.8054 -13.9295 0 
773 1 12.9315 -13.9108 0 
775 1 14.0576 -13.8932 0 
777 1 15.1852 -13.8763 0 
779 1 16.3128 -13.8628 0 
781 1 17.4406 -13.8491 0 
783 1 18.568 -13.8362 0 
785 1 19.6967 -13.8245 0 
787 1 20.8266 -13.8149 0 
789 1 21.9563 -13.8058 0 
791 1 23.0862 -13.798 0 
793 1 24.2163 -13.7895 0 
795 2 25.3462 -13.7811 0 
797 2 26.4761 -13.7764 0 
799 2 27.6062 -13.772 0 
802 2 -27.164 -12.4626 0 
804 2 -26.0357 -12.4259 0 
806 2 -24.9071 -12.3884 0 
808 1 -23.7775 -12.3479 0 
810 1 -22.647 -12.3051 0 
811 1 -22.0522 -13.2543 0 
812 1 -21.5157 -12.2607 0 
813 1 -20.9211 -13.2091 0 
814 1 -20.3842 -12.2148 0 
815 1 -19.7898 -13.1627 0 
816 1 -19.2531 -12.1662 0 
817 1 -18.6582 -13.1135 0 
818 1 -18.122 -12.1146 0 
819 1 -17.5275 -13.0617 0 
821 1 -16.396 -13.0096 0 
823 1 -15.2649 -12.957 0 
825 1 -14.1346 -12.9026 0 
827 1 -13.0023 -12.8484 0 
829 1 -11.8717 -12.7913 0 
831 1 -10.7421 -12.7354 0 
833 1 -9.61261 -12.6787 0 
835 1 -8.48501 -12.6205 0 
837 1 -7.35725 -12.5662 0 
839 1 -6.23067 -12.5097 0 
841 1 -5.10387 -12.4567 0 
843 1 -3.97921 -12.4064 0 
845 1 -2.85569 -12.3555 0 
748 1 -1.14783 -13.2793 0 
847 1 -1.73152 -12.3095 0 
849 1 -0.608592 -12.2625 0 
750 1 -0.0252299 -13.2353 0 
851 1 0.514417 -12.2197 0 
752 1 1.09815 -13.1941 0 
853 1 1.63732 -12.1785 0 
754 1 2.22153 -13.155 0 
756 1 3.34457 -13.1203 0 
758 1 4.46873 -13.0887 0 
760 1 5.59361 -13.0591 0 
762 1 6.71861 -13.0329 0 
764 1 7.84349 -13.0091 0 
766 1 8.96975 -12.9875 0 
768 1 10.0964 -12.9673 0 
770 1 11.2228 -12.9485 0 
772 1 12.35 -12.9289 0 
774 1 13.4764 -12.9108 0 
776 1 14.6039 -12.895 0 
778 1 15.7322 -12.8805 0 
780 1 16.8597 -12.8678 0 
782 1 17.9875 -12.8542 0 
784 1 19.116 -12.8426 0 
786 1 20.247 -12.8332 0 
788 1 21.3777 -12.8239 0 
790 1 22.5091 -12.8159 0 
792 1 23.6397 -12.8074 0 
794 1 24.7703 -12.7997 0 
796 2 25.9 -12.7934 0 
798 2 27.0306 -12.7893 0 
800 2 28.1612 -12.7854 0 
901 2 -27.7557 -11.5099 0 
903 2 -26.6279 -11.4735 0 
905 2 -25.4997 -11.4364 0 
907 2 -24.3713 -11.3985 0 
909 1 -23.2415 -11.3563 0 
911 1 -22.1108 -11.3126 0 
913 1 -20.9803 -11.2671 0 
915 1 -19.85 -11.2193 0 
917 1 -18.7188 -11.1685 0 
820 1 -16.9904 -12.0628 0 
919 1 -17.5867 -11.1167 0 
822 1 -15.8589 -12.0094 0 
921 1 -16.4548 -11.0639 0 
824 1 -14.728 -11.9548 0 
923 1 -15.3228 -11.0088 0 
826 1 -13.5961 -11.9007 0 
828 1 -12.4641 -11.843 0 
830 1 -11.3323 -11.7846 0 
832 1 -10.2029 -11.7279 0 
834 1 -9.07458 -11.6679 0 
836 1 -7.94555 -11.6099 0 
838 1 -6.81907 -11.5522 0 
840 1 -5.69184 -11.4962 0 
842 1 -4.56525 -11.4412 0 
844 1 -3.44072 -11.3877 0 
846 1 -2.31572 -11.3392 0 
848 1 -1.19321 -11.2903 0 
850 1 -0.0702715 -11.2451 0 
852 1 1.05237 -11.2022 0 
855 1 2.76174 -12.1423 0 
854 1 2.17655 -11.1648 0 
857 1 3.88603 -12.1101 0 
856 1 3.30114 -11.1315 0 
859 1 5.01053 -12.0799 0 
858 1 4.42663 -11.1012 0 
861 1 6.13672 -12.0527 0 
860 1 5.55347 -11.0736 0 
863 1 7.2626 -12.0281 0 
862 1 6.6797 -11.0467 0 
865 1 8.38907 -12.0063 0 
864 1 7.80585 -11.0246 0 
867 1 9.51597 -11.9856 0 
869 1 10.6428 -11.9658 0 
871 1 11.7691 -11.9474 0 
873 1 12.8964 -11.9284 0 
875 1 14.0242 -11.9129 0 
877 1 15.1524 -11.898 0 
879 1 16.2807 -11.8846 0 
881 1 17.4088 -11.8731 0 
883 1 18.5383 -11.8606 0 
885 1 19.6693 -11.8516 0 
887 1 20.8001 -11.8415 0 
889 1 21.9311 -11.8344 0 
891 1 23.0625 -11.8257 0 
893 1 24.1934 -11.818 0 
895 2 25.3239 -11.8103 0 
897 2 26.4549 -11.8064 0 
899 2 27.586 -11.8028 0 
902 2 -27.2202 -10.5209 0 
904 2 -26.0925 -10.4842 0 
906 2 -24.9646 -10.4468 0 
908 1 -23.8352 -10.4068 0 
910 1 -22.706 -10.3646 0 
912 1 -21.5755 -10.3197 0 
914 1 -20.4465 -10.2722 0 
916 1 -19.3167 -10.2233 0 
918 1 -18.1853 -10.1719 0 
920 1 -17.0531 -10.1181 0 
922 1 -15.9211 -10.064 0 
924 1 -14.7883 -10.008 0 
925 1 -14.1901 -10.9527 0 
926 1 -13.6545 -9.9492 0 
927 1 -13.0581 -10.8953 0 
928 1 -12.5219 -9.89021 0 
929 1 -11.9265 -10.8371 0 
930 1 -11.3905 -9.8299 0 
931 1 -10.7953 -10.7775 0 
933 1 -9.6661 -10.7169 0 
935 1 -8.53641 -10.6572 0 
937 1 -7.40811 -10.596 0 
939 1 -6.28026 -10.5378 0 
941 1 -5.15285 -10.4794 0 
943 1 -4.02738 -10.4214 0 
945 1 -2.90259 -10.3697 0 
947 1 -1.77954 -10.3183 0 
949 1 -0.656503 -10.2716 0 
951 1 0.466135 -10.2268 0 
953 1 1.59051 -10.1877 0 
955 1 2.71556 -10.1521 0 
957 1 3.84053 -10.1209 0 
959 1 4.96672 -10.0937 0 
961 1 6.09354 -10.0671 0 
963 1 7.22167 -10.0428 0 
965 1 8.3498 -10.0208 0 
866 1 8.93257 -11.0035 0 
967 1 9.47849 -10.0017 0 
868 1 10.0602 -10.9841 0 
969 1 10.6064 -9.98208 0 
870 1 11.1879 -10.9646 0 
971 1 11.7346 -9.96439 0 
872 1 12.3156 -10.9471 0 
973 1 12.8637 -9.94886 0 
874 1 13.4444 -10.9297 0 
975 1 13.9938 -9.93229 0 
876 1 14.5723 -10.9154 0 
977 1 15.1233 -9.91922 0 
878 1 15.7015 -10.9017 0 
979 1 16.253 -9.90665 0 
880 1 16.8312 -10.8897 0 
981 1 17.3839 -9.89588 0 
882 1 17.9606 -10.8793 0 
983 1 18.5149 -9.88702 0 
884 1 19.0918 -10.8693 0 
985 1 19.6461 -9.87805 0 
886 1 20.2229 -10.8601 0 
987 1 20.7778 -9.87013 0 
888 1 21.3545 -10.8514 0 
890 1 22.4849 -10.8441 0 
989 1 21.9093 -9.86139 0 
892 1 23.6166 -10.836 0 
991 1 23.0403 -9.85478 0 
894 1 24.7476 -10.8285 0 
993 1 24.1715 -9.84661 0 
896 2 25.8793 -10.8234 0 
995 2 25.3037 -9.84035 0 
898 2 27.0108 -10.8201 0 
997 2 26.4357 -9.83726 0 
900 2 28.1423 -10.817 0 
999 2 27.5677 -9.8344 0 
1001 2 -27.8125 -9.56805 0 
1003 2 -26.6854 -9.5318 0 
1005 2 -25.5581 -9.49477 0 
1007 2 -24.4305 -9.45693 0 
1009 1 -23.302 -9.41464 0 
1011 1 -22.1726 -9.37242 0 
1013 1 -21.0433 -9.3254 0 
1015 1 -19.9137 -9.27745 0 
1017 1 -18.7836 -9.22774 0 
1019 1 -17.6524 -9.17435 0 
1021 1 -16.5193 -9.11866 0 
1023 1 -15.387 -9.06421 0 
1025 1 -14.2543 -9.0067 0 
1027 1 -13.1205 -8.9463 0 
1029 1 -11.9874 -8.88492 0 
932 1 -10.2604 -9.76769 0 
1031 1 -10.8555 -8.82119 0 
934 1 -9.12972 -9.70675 0 
1033 1 -9.72318 -8.75905 0 
936 1 -8.00083 -9.64341 0 
1035 1 -8.59388 -8.69296 0 
938 1 -6.87133 -9.58163 0 
940 1 -5.74334 -9.52132 0 
942 1 -4.61773 -9.45893 0 
944 1 -3.49224 -9.40178 0 
946 1 -2.36799 -9.34718 0 
948 1 -1.24394 -9.29804 0 
950 1 -0.121004 -9.2511 0 
952 1 1.00371 -9.21072 0 
954 1 2.12898 -9.17314 0 
956 1 3.25431 -9.14072 0 
958 1 4.38186 -9.11223 0 
960 1 5.5093 -9.08601 0 
962 1 6.63735 -9.0622 0 
964 1 7.7658 -9.03874 0 
966 1 8.89488 -9.01847 0 
968 1 10.0243 -8.99946 0 
970 1 11.1541 -8.98156 0 
972 1 12.284 -8.96691 0 
974 1 13.4145 -8.95087 0 
976 1 14.5449 -8.93589 0 
978 1 15.6751 -8.92381 0 
980 1 16.806 -8.91283 0 
982 1 17.9368 -8.90336 0 
984 1 19.0681 -8.8955 0 
986 1 20.2 -8.88797 0 
988 1 21.3322 -8.87967 0 
990 1 22.4639 -8.87211 0 
992 1 23.5949 -8.86505 0 
994 1 24.7274 -8.85849 0 
996 2 25.8608 -8.85435 0 
998 2 26.9933 -8.85174 0 
1000 2 28.1257 -8.84931 0 
1002 2 -27.2783 -8.57905 0 
1101 2 -27.8711 -7.62598 0 
1004 2 -26.1516 -8.54247 0 
1103 2 -26.7449 -7.58983 0 
1006 2 -25.0246 -8.50509 0 
1105 2 -25.6186 -7.5529 0 
1008 1 -23.8973 -8.46454 0 
1107 2 -24.492 -7.51516 0 
1010 1 -22.7688 -8.42262 0 
1012 1 -21.6404 -8.37825 0 
1014 1 -20.5111 -8.33122 0 
1016 1 -19.3815 -8.28192 0 
1018 1 -18.2521 -8.23084 0 
1020 1 -17.1202 -8.17683 0 
1022 1 -15.9864 -8.12108 0 
1024 1 -14.8539 -8.06398 0 
1026 1 -13.7211 -8.00466 0 
1028 1 -12.5876 -7.94259 0 
1030 1 -11.4542 -7.8781 0 
1032 1 -10.3204 -7.81421 0 
1034 1 -9.18955 -7.74609 0 
1036 1 -8.0583 -7.67859 0 
1037 1 -7.46458 -8.62895 0 
1038 1 -6.9283 -7.61207 0 
1039 1 -6.33538 -8.56546 0 
1041 1 -5.20894 -8.49937 0 
1043 1 -4.08251 -8.43697 0 
1045 1 -2.95764 -8.37736 0 
1047 1 -1.83286 -8.32539 0 
1049 1 -0.709322 -8.27643 0 
1051 1 0.415932 -8.23368 0 
1053 1 1.54191 -8.19507 0 
1055 1 2.6688 -8.16014 0 
1057 1 3.79586 -8.13138 0 
1059 1 4.92383 -8.10376 0 
1061 1 6.05233 -8.08019 0 
1063 1 7.18204 -8.05792 0 
1065 1 8.3126 -8.03529 0 
1067 1 9.44214 -8.01641 0 
1069 1 10.5728 -7.99945 0 
1071 1 11.7035 -7.98283 0 
1073 1 12.8339 -7.96827 0 
1075 1 13.965 -7.95325 0 
1077 1 15.0965 -7.94073 0 
1079 1 16.2276 -7.92984 0 
1081 1 17.3595 -7.92039 0 
1083 1 18.4923 -7.91213 0 
1085 1 19.6247 -7.90467 0 
1087 1 20.7564 -7.89733 0 
1089 1 21.8889 -7.88951 0 
1091 1 23.021 -7.88281 0 
1093 1 24.1531 -7.87635 0 
1095 2 25.2861 -7.87134 0 
1097 2 26.419 -7.86899 0 
1099 2 27.5519 -7.8668 0 
1102 2 -27.3381 -6.63684 0 
1104 2 -26.2124 -6.60035 0 
1106 2 -25.0865 -6.56307 0 
1108 1 -23.9604 -6.52372 0 
1109 1 -23.3646 -7.47299 0 
1110 1 -22.8339 -6.48057 0 
1111 1 -22.2371 -7.42939 0 
1112 1 -21.7067 -6.43661 0 
1113 1 -21.1093 -7.38438 0 
1114 1 -20.5793 -6.39072 0 
1115 1 -19.9807 -7.3364 0 
1116 1 -19.4511 -6.34131 0 
1117 1 -18.8508 -7.28601 0 
1119 1 -17.72 -7.23412 0 
1121 1 -16.5884 -7.17989 0 
1123 1 -15.4562 -7.12252 0 
1125 1 -14.3231 -7.06276 0 
1127 1 -13.1903 -7.00172 0 
1129 1 -12.0563 -6.93757 0 
1131 1 -10.9217 -6.87173 0 
1133 1 -9.78886 -6.80214 0 
1135 1 -8.65621 -6.733 0 
1137 1 -7.52388 -6.66223 0 
1139 1 -6.39483 -6.58831 0 
1040 1 -5.80103 -7.54226 0 
1141 1 -5.26688 -6.51712 0 
1042 1 -4.67379 -7.47539 0 
1143 1 -4.14143 -6.44655 0 
1044 1 -3.54886 -7.41026 0 
1046 1 -2.42378 -7.35344 0 
1048 1 -1.29951 -7.30208 0 
1050 1 -0.174239 -7.25678 0 
1052 1 0.951402 -7.2166 0 
1054 1 2.07865 -7.18132 0 
1056 1 3.20681 -7.1493 0 
1058 1 4.33476 -7.12224 0 
1060 1 5.4647 -7.09728 0 
1062 1 6.59552 -7.07556 0 
1064 1 7.72751 -7.05503 0 
1066 1 8.85953 -7.03317 0 
1068 1 9.99057 -7.01641 0 
1070 1 11.1218 -6.99923 0 
1072 1 12.2531 -6.98422 0 
1074 1 13.3843 -6.97008 0 
1076 1 14.5164 -6.95775 0 
1078 1 15.6491 -6.94721 0 
1080 1 16.7818 -6.93706 0 
1082 1 17.9145 -6.92952 0 
1084 1 19.0478 -6.92165 0 
1086 1 20.1804 -6.91354 0 
1088 1 21.3129 -6.90762 0 
1090 1 22.4461 -6.90097 0 
1092 1 23.5781 -6.89389 0 
1094 1 24.7118 -6.8895 0 
1096 2 25.8451 -6.88616 0 
1098 2 26.9784 -6.88422 0 
1100 2 28.1116 -6.88241 0 
1201 2 -27.9311 -5.68349 0 
1203 2 -26.806 -5.64742 0 