ITEM: TIMESTEP
4300
ITEM: NUMBER OF ATOMS
2850
ITEM: BOX BOUNDS ff ff pp
-42.092 42.092
-42.092 42.092
-0.280613 0.280613
ITEM: ATOMS id type xu yu zu 
1 2 -27.3398 -28.9988 0 
3 2 -26.2107 -28.9642 0 
5 2 -25.0816 -28.9291 0 
7 2 -23.9525 -28.8936 0 
9 2 -22.8235 -28.8577 0 
11 2 -21.6944 -28.8213 0 
13 2 -20.5655 -28.7844 0 
15 2 -19.4366 -28.7472 0 
17 2 -18.3079 -28.7095 0 
19 2 -17.1793 -28.6715 0 
21 2 -16.0508 -28.6331 0 
23 2 -14.9226 -28.5944 0 
25 2 -13.7947 -28.5554 0 
27 2 -12.667 -28.5163 0 
29 2 -11.5396 -28.477 0 
31 2 -10.4126 -28.4376 0 
33 2 -9.28592 -28.3982 0 
35 2 -8.15967 -28.3589 0 
37 2 -7.03386 -28.3198 0 
39 2 -5.90848 -28.281 0 
2 2 -26.7941 -28.0086 0 
4 2 -25.6649 -27.9736 0 
6 2 -24.5357 -27.9381 0 
8 2 -23.4065 -27.902 0 
10 2 -22.2773 -27.8656 0 
12 2 -21.1481 -27.8286 0 
14 2 -20.019 -27.7912 0 
16 2 -18.89 -27.7533 0 
18 2 -17.7611 -27.715 0 
20 2 -16.6324 -27.6763 0 
22 2 -15.5039 -27.6373 0 
24 2 -14.3755 -27.5979 0 
26 2 -13.2475 -27.5582 0 
28 2 -12.1197 -27.5183 0 
30 2 -10.9923 -27.4783 0 
32 2 -9.86522 -27.4382 0 
34 2 -8.73856 -27.3981 0 
36 2 -7.61233 -27.3581 0 
38 2 -6.48656 -27.3184 0 
40 2 -5.36126 -27.2789 0 
41 2 -4.78357 -28.2426 0 
42 2 -4.23645 -27.24 0 
43 2 -3.65912 -28.2046 0 
44 2 -3.11213 -27.2015 0 
45 2 -2.53513 -28.1673 0 
46 2 -1.98828 -27.1638 0 
47 2 -1.41159 -28.1307 0 
48 2 -0.8649 -27.1269 0 
49 2 -0.288464 -28.095 0 
51 2 0.834263 -28.0602 0 
53 2 1.95663 -28.0264 0 
55 2 3.07869 -27.9937 0 
57 2 4.20048 -27.9622 0 
59 2 5.32207 -27.9319 0 
61 2 6.4435 -27.9029 0 
63 2 7.56483 -27.8752 0 
65 2 8.68613 -27.8488 0 
67 2 9.80743 -27.8237 0 
69 2 10.9288 -27.8 0 
71 2 12.0503 -27.7775 0 
73 2 13.1719 -27.7563 0 
75 2 14.2937 -27.7363 0 
77 2 15.4157 -27.7174 0 
79 2 16.538 -27.6997 0 
81 2 17.6605 -27.683 0 
83 2 18.7832 -27.6673 0 
85 2 19.9063 -27.6526 0 
87 2 21.0296 -27.6388 0 
89 2 22.1532 -27.6258 0 
91 2 23.2771 -27.6136 0 
93 2 24.4012 -27.6022 0 
95 2 25.5256 -27.5914 0 
97 2 26.6503 -27.5812 0 
99 2 27.7752 -27.5717 0 
101 2 -27.378 -27.0533 0 
103 2 -26.2487 -27.0183 0 
102 2 -26.833 -26.0633 0 
105 2 -25.1194 -26.9828 0 
104 2 -25.7037 -26.0278 0 
107 2 -23.9901 -26.9468 0 
106 2 -24.5742 -25.9918 0 
109 2 -22.8607 -26.9102 0 
108 1 -23.4444 -25.955 0 
111 2 -21.7314 -26.8732 0 
113 2 -20.6021 -26.8357 0 
115 2 -19.4729 -26.7977 0 
117 2 -18.3437 -26.7591 0 
119 2 -17.2147 -26.7202 0 
121 2 -16.0858 -26.6808 0 
123 2 -14.9572 -26.641 0 
125 2 -13.8287 -26.6009 0 
127 2 -12.7006 -26.5605 0 
129 2 -11.5727 -26.5198 0 
131 2 -10.4452 -26.479 0 
133 2 -9.31813 -26.4382 0 
135 2 -8.19146 -26.3973 0 
137 2 -7.06526 -26.3566 0 
139 2 -5.93954 -26.3162 0 
141 2 -4.81433 -26.2762 0 
143 2 -3.68963 -26.2366 0 
145 2 -2.56545 -26.1977 0 
147 2 -1.44177 -26.1596 0 
50 2 0.258046 -27.0909 0 
149 2 -0.318563 -26.1224 0 
52 2 1.38059 -27.056 0 
151 2 0.804196 -26.0862 0 
54 2 2.50279 -27.0222 0 
153 2 1.92656 -26.0512 0 
56 2 3.62468 -26.9896 0 
155 2 3.04857 -26.0174 0 
58 2 4.74633 -26.9582 0 
157 2 4.1703 -25.9849 0 
60 2 5.86779 -26.9282 0 
159 2 5.2918 -25.9538 0 
62 2 6.98913 -26.8996 0 
64 2 8.11041 -26.8723 0 
66 2 9.23169 -26.8465 0 
68 2 10.353 -26.822 0 
70 2 11.4745 -26.7989 0 
72 2 12.596 -26.7771 0 
74 2 13.7178 -26.7566 0 
76 2 14.8398 -26.7373 0 
78 2 15.962 -26.7192 0 
80 2 17.0845 -26.7023 0 
82 2 18.2073 -26.6863 0 
84 2 19.3304 -26.6714 0 
86 2 20.4538 -26.6575 0 
88 2 21.5774 -26.6444 0 
90 2 22.7014 -26.6321 0 
92 2 23.8256 -26.6206 0 
94 2 24.9501 -26.6098 0 
96 2 26.0749 -26.5996 0 
98 2 27.2 -26.5901 0 
100 2 28.3253 -26.5811 0 
201 2 -27.4179 -25.1085 0 
203 2 -26.2885 -25.0731 0 
205 2 -25.159 -25.0372 0 
207 2 -24.0295 -25.0007 0 
209 1 -22.8992 -24.9628 0 
110 1 -22.3147 -25.9175 0 
211 1 -21.7692 -24.9244 0 
112 1 -21.1852 -25.8797 0 
213 1 -20.6396 -24.8858 0 
114 1 -20.0558 -25.8413 0 
215 1 -19.5099 -24.8466 0 
116 1 -18.9264 -25.8025 0 
217 1 -18.3805 -24.8068 0 
118 1 -17.7971 -25.7632 0 
120 1 -16.6681 -25.7233 0 
122 1 -15.5393 -25.6831 0 
124 1 -14.4109 -25.6426 0 
126 1 -13.2825 -25.6019 0 
128 1 -12.1545 -25.5606 0 
130 1 -11.0269 -25.5191 0 
132 1 -9.89969 -25.4775 0 
134 1 -8.77313 -25.4357 0 
136 1 -7.6469 -25.3944 0 
138 1 -6.52106 -25.3529 0 
140 1 -5.39581 -25.3119 0 
142 1 -4.27108 -25.2715 0 
144 1 -3.14678 -25.2316 0 
146 1 -2.02311 -25.1924 0 
148 1 -0.899748 -25.1543 0 
150 1 0.223147 -25.1171 0 
152 1 1.34567 -25.0812 0 
154 1 2.46792 -25.0463 0 
156 1 3.58994 -25.013 0 
158 1 4.71181 -24.9808 0 
160 1 5.8336 -24.9502 0 
161 2 6.41316 -25.9242 0 
162 1 6.95522 -24.9212 0 
163 2 7.53443 -25.896 0 
164 1 8.07687 -24.8938 0 
165 2 8.65568 -25.8693 0 
167 2 9.77697 -25.844 0 
166 1 9.19851 -24.8677 0 
169 2 10.8984 -25.8202 0 
168 1 10.3203 -24.8433 0 
171 2 12.0199 -25.7978 0 
170 1 11.4422 -24.8202 0 
173 2 13.1416 -25.7768 0 
175 2 14.2636 -25.7571 0 
177 2 15.3858 -25.7386 0 
179 2 16.5083 -25.7213 0 
181 2 17.6311 -25.7052 0 
183 2 18.7543 -25.6901 0 
185 2 19.8777 -25.6759 0 
187 2 21.0014 -25.6627 0 
189 2 22.1254 -25.6504 0 
191 2 23.2498 -25.6388 0 
193 2 24.3744 -25.628 0 
195 2 25.4993 -25.6179 0 
197 2 26.6245 -25.6084 0 
199 2 27.75 -25.5994 0 
202 2 -26.8739 -24.1187 0 
204 2 -25.7444 -24.0828 0 
206 2 -24.6148 -24.0464 0 
208 1 -23.4845 -24.0088 0 
210 1 -22.3544 -23.9701 0 
212 1 -21.2243 -23.9309 0 
214 1 -20.0944 -23.8915 0 
216 1 -18.9647 -23.8513 0 
219 1 -17.2513 -24.7665 0 
218 1 -17.8351 -23.8105 0 
221 1 -16.1221 -24.7261 0 
220 1 -16.7058 -23.7697 0 
222 1 -15.5768 -23.7282 0 
223 1 -14.9933 -24.6849 0 
224 1 -14.4479 -23.6861 0 
225 1 -13.8649 -24.6437 0 
227 1 -12.7368 -24.602 0 
229 1 -11.6091 -24.5597 0 
231 1 -10.4817 -24.5175 0 
233 1 -9.35481 -24.4748 0 
235 1 -8.22846 -24.4325 0 
237 1 -7.10269 -24.3904 0 
239 1 -5.97727 -24.3484 0 
241 1 -4.85227 -24.3068 0 
243 1 -3.72805 -24.266 0 
245 1 -2.60428 -24.2256 0 
247 1 -1.48088 -24.1865 0 
249 1 -0.357811 -24.1482 0 
251 1 0.764872 -24.1112 0 
253 1 1.88735 -24.0755 0 
255 1 3.0096 -24.0411 0 
257 1 4.13157 -24.0081 0 
259 1 5.25352 -23.9766 0 
261 1 6.37556 -23.9465 0 
263 1 7.49762 -23.9185 0 
265 1 8.61964 -23.8917 0 
267 1 9.74165 -23.8664 0 
269 1 10.8638 -23.8428 0 
271 1 11.9862 -23.8205 0 
172 1 12.5643 -24.7987 0 
273 1 13.1087 -23.7999 0 
174 1 13.6865 -24.7785 0 
275 1 14.2315 -23.7805 0 
176 1 14.809 -24.7596 0 
277 1 15.3545 -23.7623 0 
178 1 15.9318 -24.7419 0 
279 1 16.4778 -23.7455 0 
180 1 17.0549 -24.7253 0 
281 1 17.6015 -23.7298 0 
182 1 18.1783 -24.71 0 
283 1 18.7254 -23.7151 0 
184 1 19.3018 -24.6955 0 
285 1 19.8494 -23.7013 0 
186 1 20.4256 -24.682 0 
287 1 20.9737 -23.6885 0 
188 1 21.5498 -24.6695 0 
289 1 22.0982 -23.6765 0 
190 1 22.6743 -24.6576 0 
291 1 23.223 -23.6652 0 
192 1 23.799 -24.6466 0 
293 1 24.3479 -23.6546 0 
194 1 24.9239 -24.6361 0 
295 2 25.4729 -23.6443 0 
196 2 26.0488 -24.6264 0 
198 2 27.1745 -24.6176 0 
200 2 28.3003 -24.6093 0 
301 2 -27.4598 -23.1644 0 
303 2 -26.3303 -23.1287 0 
305 2 -25.2007 -23.0924 0 
307 2 -24.071 -23.0555 0 
309 1 -22.9403 -23.0164 0 
311 1 -21.8099 -22.9769 0 
313 1 -20.6797 -22.9371 0 
315 1 -19.5497 -22.8965 0 
317 1 -18.4198 -22.8555 0 
319 1 -17.2902 -22.814 0 
321 1 -16.161 -22.7722 0 
323 1 -15.0319 -22.7297 0 
226 1 -13.3196 -23.6441 0 
325 1 -13.9032 -22.6868 0 
327 1 -12.7749 -22.6436 0 
228 1 -12.1916 -23.6012 0 
329 1 -11.6471 -22.5997 0 
230 1 -11.064 -23.5582 0 
331 1 -10.5198 -22.5557 0 
232 1 -9.93705 -23.5149 0 
333 1 -9.39295 -22.5115 0 
234 1 -8.81048 -23.4716 0 
236 1 -7.68442 -23.4284 0 
238 1 -6.55896 -23.3856 0 
240 1 -5.43385 -23.3431 0 
242 1 -4.30932 -23.3009 0 
244 1 -3.18541 -23.2595 0 
246 1 -2.06175 -23.2192 0 
248 1 -0.938519 -23.18 0 
250 1 0.184254 -23.1414 0 
252 1 1.30677 -23.1049 0 
254 1 2.42917 -23.0696 0 
256 1 3.55143 -23.0356 0 
258 1 4.67354 -23.0031 0 
260 1 5.79565 -22.9723 0 
262 1 6.91795 -22.9431 0 
264 1 8.04029 -22.9158 0 
266 1 9.16263 -22.8897 0 
268 1 10.285 -22.8653 0 
270 1 11.4075 -22.8426 0 
272 1 12.5304 -22.8212 0 
274 1 13.6535 -22.8015 0 
276 1 14.7768 -22.7829 0 
278 1 15.9005 -22.7656 0 
280 1 17.0242 -22.7496 0 
282 1 18.1483 -22.7346 0 
284 1 19.2726 -22.7207 0 
286 1 20.3971 -22.7075 0 
288 1 21.5219 -22.6952 0 
290 1 22.6469 -22.6837 0 
292 1 23.772 -22.673 0 
294 1 24.8973 -22.6627 0 
297 2 26.5987 -23.6355 0 
296 2 26.0228 -22.6533 0 
299 2 27.7248 -23.6273 0 
298 2 27.149 -22.6452 0 
300 2 28.2755 -22.6376 0 
302 2 -26.9167 -22.1747 0 
304 2 -25.7871 -22.1385 0 
306 2 -24.6574 -22.1018 0 
308 1 -23.5269 -22.0633 0 
310 1 -22.3964 -22.0235 0 
312 1 -21.2658 -21.9833 0 
314 1 -20.1356 -21.9425 0 
316 1 -19.0055 -21.9012 0 
318 1 -17.8756 -21.8593 0 
320 1 -16.7458 -21.8167 0 
322 1 -15.6166 -21.7739 0 
324 1 -14.4875 -21.7306 0 
326 1 -13.3589 -21.6866 0 
328 1 -12.2308 -21.6421 0 
330 1 -11.1031 -21.5973 0 
332 1 -9.97588 -21.5523 0 
334 1 -8.84907 -21.5073 0 
335 1 -8.26662 -22.4674 0 
336 1 -7.72295 -21.4622 0 
337 1 -7.14074 -22.4234 0 
338 1 -6.59735 -21.4176 0 
339 1 -6.01539 -22.3799 0 
340 1 -5.47238 -21.3731 0 
341 1 -4.89081 -22.3366 0 
343 1 -3.7666 -22.2941 0 
345 1 -2.64278 -22.2526 0 
347 1 -1.51944 -22.2121 0 
349 1 -0.396605 -22.1725 0 
351 1 0.726228 -22.1345 0 
353 1 1.8487 -22.0982 0 
355 1 2.97106 -22.0633 0 
357 1 4.0934 -22.0299 0 
359 1 5.21576 -21.9981 0 
361 1 6.33805 -21.968 0 
363 1 7.46041 -21.9398 0 
365 1 8.58289 -21.9132 0 
367 1 9.70568 -21.8881 0 
369 1 10.8286 -21.8646 0 
371 1 11.9516 -21.8428 0 
373 1 13.075 -21.8224 0 
375 1 14.1985 -21.8034 0 
377 1 15.3224 -21.7859 0 
379 1 16.4464 -21.7694 0 
381 1 17.5708 -21.7541 0 
383 1 18.6953 -21.7399 0 
385 1 19.8201 -21.7265 0 
387 1 20.9451 -21.714 0 
389 1 22.0703 -21.7023 0 
391 1 23.1957 -21.6913 0 
393 1 24.3211 -21.6809 0 
395 2 25.4466 -21.6709 0 
397 2 26.573 -21.6629 0 
399 2 27.6998 -21.6554 0 
401 2 -27.5037 -21.2208 0 
403 2 -26.3741 -21.1849 0 
402 2 -26.9617 -20.2313 0 
405 2 -25.2445 -21.1483 0 
404 2 -25.8321 -20.1949 0 
407 2 -24.1147 -21.111 0 
409 1 -22.9837 -21.0708 0 
411 1 -21.853 -21.0303 0 
413 1 -20.7224 -20.9892 0 
415 1 -19.5919 -20.9474 0 
417 1 -18.4617 -20.9053 0 
419 1 -17.3317 -20.8624 0 
421 1 -16.202 -20.819 0 
423 1 -15.0725 -20.7751 0 
425 1 -13.9435 -20.7306 0 
427 1 -12.8149 -20.6855 0 
429 1 -11.6869 -20.6398 0 
431 1 -10.5592 -20.5941 0 
433 1 -9.43199 -20.5481 0 
435 1 -8.30545 -20.502 0 
437 1 -7.17959 -20.4562 0 
439 1 -6.05442 -20.4106 0 
342 1 -4.34791 -21.3295 0 
441 1 -4.92966 -20.3657 0 
344 1 -3.22398 -21.2867 0 
443 1 -3.80546 -20.3215 0 
346 1 -2.10057 -21.2447 0 
445 1 -2.68188 -20.278 0 
348 1 -0.977529 -21.2041 0 
447 1 -1.55863 -20.2361 0 
350 1 0.145424 -21.165 0 
352 1 1.26813 -21.1271 0 
354 1 2.3906 -21.0911 0 
356 1 3.51304 -21.0568 0 
358 1 4.63551 -21.0242 0 
360 1 5.7579 -20.9931 0 
362 1 6.88039 -20.964 0 
364 1 8.0031 -20.9366 0 
366 1 9.12602 -20.9108 0 
368 1 10.2491 -20.8867 0 
370 1 11.3725 -20.8642 0 
372 1 12.4962 -20.8434 0 
374 1 13.62 -20.824 0 
376 1 14.7441 -20.806 0 
378 1 15.8684 -20.7892 0 
380 1 16.993 -20.7737 0 
382 1 18.1179 -20.759 0 
384 1 19.2429 -20.7454 0 
386 1 20.368 -20.7327 0 
388 1 21.4934 -20.7209 0 
390 1 22.619 -20.7098 0 
392 1 23.7447 -20.6991 0 
394 1 24.8706 -20.6892 0 
396 2 25.9969 -20.6804 0 
398 2 27.1238 -20.673 0 
400 2 28.251 -20.6661 0 
501 2 -27.5497 -19.2779 0 
503 2 -26.4202 -19.2417 0 
505 2 -25.2906 -19.2049 0 
406 2 -24.7023 -20.1579 0 
507 2 -24.1608 -19.1673 0 
408 1 -23.5715 -20.1188 0 
509 1 -23.0294 -19.1262 0 
410 1 -22.4406 -20.0779 0 
511 1 -21.8983 -19.0844 0 
412 1 -21.3099 -20.0364 0 
513 1 -20.7675 -19.0423 0 
414 1 -20.1794 -19.9947 0 
416 1 -19.0487 -19.952 0 
418 1 -17.9183 -19.9088 0 
420 1 -16.7882 -19.8651 0 
422 1 -15.6584 -19.8207 0 
424 1 -14.529 -19.7755 0 
426 1 -13.3999 -19.7299 0 
428 1 -12.2713 -19.6834 0 
430 1 -11.1432 -19.6368 0 
432 1 -10.0157 -19.59 0 
434 1 -8.88862 -19.5428 0 
436 1 -7.76227 -19.4958 0 
438 1 -6.63672 -19.4491 0 
440 1 -5.51166 -19.4028 0 
442 1 -4.38713 -19.3571 0 
444 1 -3.26325 -19.3122 0 
446 1 -2.13973 -19.2687 0 
448 1 -1.01664 -19.2268 0 
449 1 -0.435577 -20.1957 0 
450 1 0.106171 -19.1866 0 
451 1 0.687219 -20.1567 0 
452 1 1.22884 -19.148 0 
453 1 1.80983 -20.1193 0 
454 1 2.35157 -19.1113 0 
455 1 2.93241 -20.0839 0 
456 1 3.47419 -19.0765 0 
457 1 4.05487 -20.0503 0 
459 1 5.1775 -20.0184 0 
461 1 6.30026 -19.9882 0 
463 1 7.42306 -19.96 0 
465 1 8.54609 -19.9336 0 
467 1 9.66942 -19.9086 0 
469 1 10.793 -19.8858 0 
471 1 11.9168 -19.8644 0 
473 1 13.041 -19.8444 0 
475 1 14.1654 -19.8261 0 
477 1 15.29 -19.8089 0 
479 1 16.4148 -19.7931 0 
481 1 17.54 -19.7784 0 
483 1 18.6653 -19.7644 0 
485 1 19.7907 -19.7514 0 
487 1 20.9164 -19.7394 0 
489 1 22.0421 -19.7282 0 
491 1 23.1681 -19.7176 0 
493 1 24.2942 -19.7074 0 
495 2 25.4205 -19.6978 0 
497 2 26.5477 -19.6905 0 
499 2 27.6751 -19.6838 0 
502 2 -27.0088 -18.2886 0 
504 2 -25.8793 -18.252 0 
506 2 -24.7497 -18.2147 0 
508 1 -23.6186 -18.1751 0 
510 1 -22.4877 -18.1331 0 
512 1 -21.3566 -18.0907 0 
514 1 -20.2256 -18.0478 0 
515 1 -19.6369 -18.9997 0 
516 1 -19.0949 -18.0042 0 
517 1 -18.5061 -18.956 0 
518 1 -17.9639 -17.9597 0 
519 1 -17.3755 -18.9119 0 
520 1 -16.8332 -17.9145 0 
521 1 -16.2453 -18.8672 0 
523 1 -15.1154 -18.8216 0 
525 1 -13.9859 -18.7754 0 
527 1 -12.8568 -18.7283 0 
529 1 -11.7281 -18.6807 0 
531 1 -10.6 -18.6328 0 
533 1 -9.47265 -18.5848 0 
535 1 -8.34579 -18.5366 0 
537 1 -7.21969 -18.4884 0 
539 1 -6.09428 -18.4407 0 
541 1 -4.96951 -18.3937 0 
543 1 -3.84534 -18.3474 0 
545 1 -2.72152 -18.3023 0 
547 1 -1.59819 -18.2586 0 
549 1 -0.475184 -18.2169 0 
551 1 0.647554 -18.1769 0 
553 1 1.77022 -18.1391 0 
555 1 2.89305 -18.103 0 
557 1 4.01593 -18.0691 0 
458 1 4.59682 -19.0438 0 
559 1 5.13891 -18.0373 0 
460 1 5.71976 -19.0126 0 
561 1 6.26211 -18.007 0 
462 1 6.84278 -18.9835 0 
563 1 7.38549 -17.9791 0 
464 1 7.96609 -18.9562 0 
565 1 8.50912 -17.9528 0 
466 1 9.08944 -18.9308 0 
567 1 9.6331 -17.9288 0 
468 1 10.2132 -18.9073 0 
569 1 10.7573 -17.9065 0 
470 1 11.3373 -18.8855 0 
472 1 12.4615 -18.8649 0 
474 1 13.5861 -18.8461 0 
476 1 14.711 -18.8287 0 
478 1 15.8362 -18.8125 0 
480 1 16.9616 -18.7976 0 
482 1 18.087 -18.7835 0 
484 1 19.2127 -18.7701 0 
486 1 20.3388 -18.758 0 
488 1 21.4651 -18.7464 0 
490 1 22.5914 -18.7359 0 
492 1 23.7178 -18.7258 0 
494 1 24.8444 -18.716 0 
496 2 25.9714 -18.7078 0 
498 2 27.0991 -18.7012 0 
500 2 28.2271 -18.6951 0 
601 2 -27.5979 -17.3354 0 
603 2 -26.4686 -17.2992 0 
605 2 -25.3391 -17.2621 0 
607 2 -24.2094 -17.2244 0 
609 1 -23.0778 -17.1823 0 
611 1 -21.9466 -17.1399 0 
613 1 -20.8154 -17.0966 0 
615 1 -19.6843 -17.0528 0 
617 1 -18.5531 -17.0083 0 
619 1 -17.4222 -16.9628 0 
522 1 -15.7028 -17.8685 0 
621 1 -16.2914 -16.9165 0 
524 1 -14.5728 -17.8219 0 
623 1 -15.1608 -16.8693 0 
526 1 -13.4432 -17.7742 0 
625 1 -14.0307 -16.8213 0 
528 1 -12.3141 -17.7259 0 
627 1 -12.901 -16.7723 0 
530 1 -11.1854 -17.677 0 
532 1 -10.0574 -17.6277 0 
534 1 -8.93009 -17.5785 0 
536 1 -7.80351 -17.529 0 
538 1 -6.6775 -17.4798 0 
540 1 -5.5523 -17.4312 0 
542 1 -4.42778 -17.3833 0 
544 1 -3.30373 -17.3367 0 
546 1 -2.18022 -17.2912 0 
548 1 -1.05697 -17.2477 0 
550 1 0.0659579 -17.2063 0 
552 1 1.18876 -17.1667 0 
554 1 2.31149 -17.1297 0 
556 1 3.43449 -17.0946 0 
558 1 4.55756 -17.0618 0 
560 1 5.68077 -17.0308 0 
562 1 6.80446 -17.0018 0 
564 1 7.92825 -16.9749 0 
566 1 9.0525 -16.9502 0 
568 1 10.177 -16.9273 0 
571 1 11.8818 -17.8854 0 
570 1 11.3017 -16.9059 0 
573 1 13.0067 -17.8661 0 
572 1 12.4269 -16.8861 0 
575 1 14.1319 -17.8484 0 
574 1 13.5523 -16.8679 0 
577 1 15.2574 -17.8318 0 
576 1 14.6781 -16.851 0 
579 1 16.383 -17.8167 0 
578 1 15.804 -16.8355 0 
581 1 17.5087 -17.8023 0 
580 1 16.9301 -16.821 0 
583 1 18.6346 -17.7889 0 
582 1 18.0564 -16.8075 0 
585 1 19.761 -17.7766 0 
584 1 19.1831 -16.795 0 
587 1 20.8876 -17.7649 0 
586 1 20.31 -16.7833 0 
589 1 22.0145 -17.7541 0 
588 1 21.4371 -16.7724 0 
591 1 23.1412 -17.7439 0 
590 1 22.5643 -16.7622 0 
593 1 24.268 -17.7343 0 
592 1 23.6915 -16.7524 0 
595 2 25.3948 -17.725 0 
594 1 24.8188 -16.7432 0 
596 2 25.9465 -16.7357 0 
597 2 26.5229 -17.7186 0 
598 2 27.0751 -16.7299 0 
599 2 27.6512 -17.7126 0 
600 2 28.2039 -16.7246 0 
602 2 -27.0583 -16.3463 0 
604 2 -25.929 -16.3096 0 
606 2 -24.7995 -16.2721 0 
608 1 -23.6686 -16.232 0 
610 1 -22.5373 -16.1893 0 
612 1 -21.4062 -16.1462 0 
614 1 -20.2748 -16.1022 0 
616 1 -19.1434 -16.0576 0 
618 1 -18.0122 -16.012 0 
620 1 -16.8811 -15.9653 0 
622 1 -15.7501 -15.9179 0 
624 1 -14.6194 -15.8692 0 
626 1 -13.4891 -15.8199 0 
628 1 -12.3593 -15.7693 0 
629 1 -11.7719 -16.7225 0 
630 1 -11.2301 -15.7181 0 
631 1 -10.6432 -16.6722 0 
632 1 -10.1015 -15.6665 0 
633 1 -9.51515 -16.6217 0 
634 1 -8.97364 -15.6142 0 
635 1 -8.38803 -16.5708 0 
637 1 -7.26153 -16.5203 0 
639 1 -6.13592 -16.47 0 
641 1 -5.01094 -16.4205 0 
643 1 -3.88653 -16.372 0 
645 1 -2.76284 -16.3246 0 
647 1 -1.6394 -16.2793 0 
649 1 -0.516232 -16.2361 0 
651 1 0.60665 -16.195 0 
653 1 1.72959 -16.1563 0 
655 1 2.85249 -16.1201 0 
657 1 3.97565 -16.0862 0 
659 1 5.09899 -16.0545 0 
661 1 6.22284 -16.0247 0 
663 1 7.34705 -15.9969 0 
665 1 8.47157 -15.9714 0 
667 1 9.59637 -15.948 0 
669 1 10.7214 -15.9261 0 
671 1 11.8467 -15.906 0 
673 1 12.9724 -15.8873 0 
675 1 14.0984 -15.8701 0 
677 1 15.2247 -15.8543 0 
679 1 16.3512 -15.8397 0 
681 1 17.4779 -15.826 0 
683 1 18.6049 -15.8135 0 
685 1 19.732 -15.8017 0 
687 1 20.8595 -15.7907 0 
689 1 21.987 -15.7805 0 
691 1 23.1145 -15.7707 0 
693 1 24.2422 -15.7614 0 
695 2 25.3699 -15.7527 0 
697 2 26.4989 -15.7471 0 
699 2 27.6281 -15.742 0 
701 2 -27.6483 -15.3934 0 
703 2 -26.5193 -15.357 0 
705 2 -25.3901 -15.3199 0 
707 2 -24.2607 -15.282 0 
709 1 -23.1293 -15.2394 0 
711 1 -21.9979 -15.1961 0 
713 1 -20.8665 -15.1523 0 
715 1 -19.735 -15.1077 0 
717 1 -18.6033 -15.062 0 
719 1 -17.4718 -15.0152 0 
721 1 -16.3404 -14.9675 0 
723 1 -15.2094 -14.9185 0 
725 1 -14.0785 -14.8686 0 
727 1 -12.9481 -14.8176 0 
729 1 -11.8182 -14.7654 0 
731 1 -10.6889 -14.7127 0 
733 1 -9.56038 -14.6593 0 
636 1 -7.84649 -15.5622 0 
735 1 -8.43253 -14.6057 0 
638 1 -6.72025 -15.5102 0 
737 1 -7.3055 -14.552 0 
640 1 -5.5948 -15.4589 0 
739 1 -6.17938 -14.4987 0 
642 1 -4.46996 -15.4084 0 
644 1 -3.34588 -15.3591 0 
646 1 -2.22221 -15.3117 0 
648 1 -1.09894 -15.2666 0 
650 1 0.0240402 -15.2238 0 
652 1 1.14707 -15.1835 0 
654 1 2.27016 -15.1457 0 
656 1 3.39347 -15.1107 0 
658 1 4.517 -15.078 0 
660 1 5.64086 -15.0475 0 
662 1 6.76514 -15.019 0 
664 1 7.88992 -14.9928 0 
666 1 9.01513 -14.9686 0 
668 1 10.1407 -14.9464 0 
670 1 11.2663 -14.9257 0 
672 1 12.3923 -14.9066 0 
674 1 13.5186 -14.8891 0 
676 1 14.6453 -14.873 0 
678 1 15.7722 -14.8581 0 
680 1 16.8992 -14.8445 0 
682 1 18.0264 -14.8317 0 
684 1 19.1539 -14.82 0 
686 1 20.2816 -14.8089 0 
688 1 21.4095 -14.7988 0 
690 1 22.5375 -14.789 0 
692 1 23.6657 -14.7798 0 
694 1 24.794 -14.7711 0 
696 2 25.9226 -14.7642 0 
698 2 27.0521 -14.7592 0 
700 2 28.1818 -14.7547 0 
702 2 -27.11 -14.4044 0 
801 2 -27.7009 -13.4516 0 
704 2 -25.9811 -14.3676 0 
803 2 -26.5724 -13.4152 0 
706 2 -24.852 -14.3301 0 
805 2 -25.4437 -13.3781 0 
708 1 -23.7215 -14.2897 0 
807 2 -24.3146 -13.3401 0 
710 1 -22.5904 -14.2466 0 
809 1 -23.1836 -13.2973 0 
712 1 -21.459 -14.2028 0 
714 1 -20.3274 -14.1583 0 
716 1 -19.1957 -14.1127 0 
718 1 -18.0639 -14.066 0 
720 1 -16.9321 -14.0182 0 
722 1 -15.8008 -13.969 0 
724 1 -14.6694 -13.9186 0 
726 1 -13.5383 -13.8671 0 
728 1 -12.4078 -13.8143 0 
730 1 -11.2777 -13.7605 0 
732 1 -10.1484 -13.7059 0 
734 1 -9.01986 -13.6509 0 
736 1 -7.892 -13.5955 0 
738 1 -6.76515 -13.5403 0 
740 1 -5.63918 -13.4857 0 
741 1 -5.05405 -14.4464 0 
742 1 -4.51426 -13.432 0 
743 1 -3.92952 -14.3947 0 
744 1 -3.38983 -13.3799 0 
745 1 -2.80561 -14.3452 0 
746 1 -2.26609 -13.3302 0 
747 1 -1.68206 -14.2979 0 
749 1 -0.558851 -14.253 0 
751 1 0.564203 -14.211 0 
753 1 1.6873 -14.1717 0 
755 1 2.81076 -14.1352 0 
757 1 3.93438 -14.1014 0 
759 1 5.05844 -14.0702 0 
761 1 6.18301 -14.0411 0 
763 1 7.30799 -14.0141 0 
765 1 8.43343 -13.9893 0 
767 1 9.55931 -13.9665 0 
769 1 10.6854 -13.9453 0 
771 1 11.8118 -13.9259 0 
773 1 12.9385 -13.9079 0 
775 1 14.0655 -13.8916 0 
777 1 15.1928 -13.8765 0 
779 1 16.3202 -13.8626 0 
781 1 17.4478 -13.8498 0 
783 1 18.5757 -13.838 0 
785 1 19.7038 -13.8269 0 
787 1 20.8321 -13.8167 0 
789 1 21.9604 -13.8072 0 
791 1 23.0888 -13.7982 0 
793 1 24.2176 -13.7894 0 
795 2 25.3462 -13.7811 0 
797 2 26.4761 -13.7764 0 
799 2 27.6062 -13.772 0 
802 2 -27.164 -12.4626 0 
804 2 -26.0357 -12.4259 0 
806 2 -24.9071 -12.3884 0 
808 1 -23.7769 -12.348 0 
810 1 -22.6461 -12.3049 0 
811 1 -22.0523 -13.2537 0 
812 1 -21.5149 -12.2608 0 
813 1 -20.9208 -13.2093 0 
814 1 -20.3833 -12.2158 0 
815 1 -19.789 -13.1641 0 
816 1 -19.2515 -12.1695 0 
817 1 -18.6571 -13.1174 0 
818 1 -18.1196 -12.1219 0 
819 1 -17.5251 -13.0697 0 
821 1 -16.3933 -13.0204 0 
823 1 -15.2617 -12.9699 0 
825 1 -14.1301 -12.918 0 
827 1 -12.9989 -12.8645 0 
829 1 -11.8681 -12.8102 0 
831 1 -10.7379 -12.7544 0 
833 1 -9.60846 -12.6978 0 
835 1 -8.47989 -12.641 0 
837 1 -7.35221 -12.5837 0 
839 1 -6.22556 -12.527 0 
841 1 -5.09987 -12.4707 0 
843 1 -3.97498 -12.4161 0 
845 1 -2.85091 -12.3635 0 
748 1 -1.14282 -13.2831 0 
847 1 -1.72735 -12.3138 0 
849 1 -0.604132 -12.2675 0 
750 1 -0.0196081 -13.2389 0 
851 1 0.519181 -12.2243 0 
752 1 1.10361 -13.1978 0 
853 1 1.64288 -12.1846 0 
754 1 2.2271 -13.16 0 
756 1 3.35098 -13.1251 0 
758 1 4.47531 -13.0927 0 
760 1 5.60016 -13.0629 0 
762 1 6.72555 -13.0353 0 
764 1 7.85122 -13.0098 0 
766 1 8.97742 -12.9865 0 
768 1 10.104 -12.9649 0 
770 1 11.2308 -12.9448 0 
772 1 12.3579 -12.9268 0 
774 1 13.4853 -12.91 0 
776 1 14.613 -12.8948 0 
778 1 15.7409 -12.8806 0 
780 1 16.869 -12.8677 0 
782 1 17.9974 -12.856 0 
784 1 19.126 -12.8448 0 
786 1 20.2546 -12.8345 0 
788 1 21.3833 -12.8251 0 
790 1 22.5123 -12.8162 0 
792 1 23.6413 -12.8079 0 
794 1 24.7705 -12.7997 0 
796 2 25.9 -12.7934 0 
798 2 27.0306 -12.7893 0 
800 2 28.1612 -12.7854 0 
901 2 -27.7557 -11.5099 0 
903 2 -26.6279 -11.4735 0 
905 2 -25.4997 -11.4364 0 
907 2 -24.3713 -11.3985 0 
909 1 -23.2408 -11.356 0 
911 1 -22.1099 -11.3124 0 
913 1 -20.9785 -11.2678 0 
915 1 -19.847 -11.2218 0 
917 1 -18.7153 -11.1746 0 
820 1 -16.9877 -12.0727 0 
919 1 -17.5833 -11.1258 0 
822 1 -15.8556 -12.0222 0 
921 1 -16.451 -11.0755 0 
824 1 -14.7236 -11.9701 0 
923 1 -15.3187 -11.0234 0 
826 1 -13.5918 -11.9162 0 
828 1 -12.4602 -11.8612 0 
830 1 -11.3294 -11.8047 0 
832 1 -10.199 -11.747 0 
834 1 -9.06942 -11.6884 0 
836 1 -7.94087 -11.6294 0 
838 1 -6.81326 -11.5703 0 
840 1 -5.68694 -11.5115 0 
842 1 -4.56146 -11.454 0 
844 1 -3.43708 -11.3983 0 
846 1 -2.31325 -11.3458 0 
848 1 -1.18968 -11.2965 0 
850 1 -0.066346 -11.2512 0 
852 1 1.05747 -11.2098 0 
855 1 2.76693 -12.1486 0 
854 1 2.18188 -11.1719 0 
857 1 3.8915 -12.1153 0 
856 1 3.30676 -11.1377 0 
859 1 5.01661 -12.0845 0 
858 1 4.43205 -11.106 0 
861 1 6.14232 -12.0564 0 
860 1 5.55801 -11.0771 0 
863 1 7.26844 -12.0302 0 
862 1 6.68452 -11.0506 0 
865 1 8.39499 -12.0064 0 
864 1 7.81166 -11.0261 0 
867 1 9.52192 -11.9844 0 
869 1 10.6492 -11.9638 0 
871 1 11.7768 -11.9455 0 
873 1 12.9047 -11.9286 0 
875 1 14.033 -11.9129 0 
877 1 15.1615 -11.8986 0 
879 1 16.2901 -11.8854 0 
881 1 17.4189 -11.8736 0 
883 1 18.5479 -11.8626 0 
885 1 19.6769 -11.8523 0 
887 1 20.8061 -11.8429 0 
889 1 21.9354 -11.8341 0 
891 1 23.0648 -11.8258 0 
893 1 24.1944 -11.8181 0 
895 2 25.3239 -11.8103 0 
897 2 26.4549 -11.8064 0 
899 2 27.586 -11.8028 0 
902 2 -27.2202 -10.5209 0 
904 2 -26.0925 -10.4842 0 
906 2 -24.9646 -10.4468 0 
908 1 -23.8353 -10.4066 0 
910 1 -22.7052 -10.3639 0 
912 1 -21.5746 -10.3199 0 
914 1 -20.4434 -10.2745 0 
916 1 -19.3119 -10.2276 0 
918 1 -18.1802 -10.1795 0 
920 1 -17.048 -10.1296 0 
922 1 -15.9156 -10.0778 0 
924 1 -14.7831 -10.024 0 
925 1 -14.1865 -10.9695 0 
926 1 -13.6506 -9.96847 0 
927 1 -13.0543 -10.914 0 
928 1 -12.5182 -9.91076 0 
929 1 -11.9226 -10.8567 0 
930 1 -11.386 -9.8513 0 
931 1 -10.7914 -10.7981 0 
933 1 -9.66079 -10.7381 0 
935 1 -8.53114 -10.6772 0 
937 1 -7.40251 -10.6159 0 
939 1 -6.27527 -10.5543 0 
941 1 -5.14916 -10.494 0 
943 1 -4.02412 -10.4349 0 
945 1 -2.89988 -10.3789 0 
947 1 -1.77615 -10.3267 0 
949 1 -0.652527 -10.2785 0 
951 1 0.471405 -10.2351 0 
953 1 1.59584 -10.1955 0 
955 1 2.72109 -10.1599 0 
957 1 3.84666 -10.1272 0 
959 1 4.973 -10.0977 0 
961 1 6.10004 -10.0707 0 
963 1 7.22772 -10.0458 0 
965 1 8.35596 -10.023 0 
866 1 8.93923 -11.0037 0 
967 1 9.48443 -10.0019 0 
868 1 10.0671 -10.9828 0 
969 1 10.6134 -9.9825 0 
870 1 11.1954 -10.964 0 
971 1 11.7425 -9.96496 0 
872 1 12.3239 -10.9468 0 
973 1 12.872 -9.949 0 
874 1 13.4526 -10.9311 0 
975 1 14.0018 -9.93445 0 
876 1 14.5818 -10.9167 0 
977 1 15.1316 -9.92102 0 
878 1 15.7112 -10.9032 0 
979 1 16.2615 -9.90843 0 
880 1 16.8404 -10.891 0 
981 1 17.3914 -9.89736 0 
882 1 17.9696 -10.8801 0 
983 1 18.5214 -9.88727 0 
884 1 19.0991 -10.8698 0 
985 1 19.6515 -9.87794 0 
886 1 20.2288 -10.8605 0 
987 1 20.7819 -9.86939 0 
888 1 21.3586 -10.8519 0 
890 1 22.4885 -10.8437 0 
989 1 21.9123 -9.86151 0 
892 1 23.6187 -10.8361 0 
991 1 23.0428 -9.85412 0 
894 1 24.7488 -10.8289 0 
993 1 24.1733 -9.84709 0 
896 2 25.8793 -10.8234 0 
995 2 25.3037 -9.84035 0 
898 2 27.0108 -10.8201 0 
997 2 26.4357 -9.83726 0 
900 2 28.1423 -10.817 0 
999 2 27.5677 -9.8344 0 
1001 2 -27.8125 -9.56805 0 
1003 2 -26.6854 -9.5318 0 
1005 2 -25.5581 -9.49477 0 
1007 2 -24.4305 -9.45693 0 
1009 1 -23.3008 -9.41486 0 
1011 1 -22.1709 -9.37165 0 
1013 1 -21.0405 -9.32717 0 
1015 1 -19.9095 -9.28103 0 
1017 1 -18.778 -9.23327 0 
1019 1 -17.6463 -9.18413 0 
1021 1 -16.5141 -9.13291 0 
1023 1 -15.3816 -9.07962 0 
1025 1 -14.2488 -9.02425 0 
1027 1 -13.116 -8.96651 0 
1029 1 -11.9832 -8.90664 0 
932 1 -10.2544 -9.79008 0 
1031 1 -10.8506 -8.8446 0 
934 1 -9.12362 -9.72747 0 
1033 1 -9.71874 -8.78051 0 
936 1 -7.99383 -9.66412 0 
1035 1 -8.58765 -8.71513 0 
938 1 -6.86547 -9.59988 0 
940 1 -5.73833 -9.53622 0 
942 1 -4.61275 -9.47377 0 
944 1 -3.48808 -9.41385 0 
946 1 -2.36408 -9.35787 0 
948 1 -1.2403 -9.30652 0 
950 1 -0.116061 -9.26054 0 
952 1 1.00855 -9.21913 0 
954 1 2.13396 -9.18205 0 
956 1 3.26003 -9.14839 0 
958 1 4.38695 -9.1181 0 
960 1 5.51464 -9.09046 0 
962 1 6.64292 -9.06527 0 
964 1 7.77179 -9.04211 0 
966 1 8.90122 -9.02066 0 
968 1 10.0307 -9.00103 0 
970 1 11.1607 -8.98314 0 
972 1 12.2909 -8.96691 0 
974 1 13.4214 -8.95205 0 
976 1 14.5518 -8.93855 0 
978 1 15.6823 -8.92598 0 
980 1 16.813 -8.91474 0 
982 1 17.9437 -8.90451 0 
984 1 19.0744 -8.89519 0 
986 1 20.2052 -8.88671 0 
988 1 21.3362 -8.87899 0 
990 1 22.4671 -8.87186 0 
992 1 23.5982 -8.86522 0 
994 1 24.7293 -8.85872 0 
996 2 25.8608 -8.85435 0 
998 2 26.9933 -8.85174 0 
1000 2 28.1257 -8.84931 0 
1002 2 -27.2783 -8.57905 0 
1101 2 -27.8711 -7.62598 0 
1004 2 -26.1516 -8.54247 0 
1103 2 -26.7449 -7.58983 0 
1006 2 -25.0246 -8.50509 0 
1105 2 -25.6186 -7.5529 0 
1008 1 -23.8961 -8.4653 0 
1107 2 -24.492 -7.51516 0 
1010 1 -22.7671 -8.423 0 
1012 1 -21.6375 -8.37943 0 
1014 1 -20.5074 -8.33436 0 
1016 1 -19.3767 -8.28742 0 
1018 1 -18.2456 -8.23891 0 
1020 1 -17.114 -8.18841 0 
1022 1 -15.9819 -8.13588 0 
1024 1 -14.8492 -8.08119 0 
1026 1 -13.7164 -8.0238 0 
1028 1 -12.5832 -7.96395 0 
1030 1 -11.4498 -7.90159 0 
1032 1 -10.3168 -7.83646 0 
1034 1 -9.1843 -7.76935 0 
1036 1 -8.05302 -7.7002 0 
1037 1 -7.45796 -8.64841 0 
1038 1 -6.92319 -7.62998 0 
1039 1 -6.32963 -8.58141 0 
1041 1 -5.20301 -8.51491 0 
1043 1 -4.07783 -8.45085 0 
1045 1 -2.95342 -8.39067 0 
1047 1 -1.82945 -8.33543 0 
1049 1 -0.705063 -8.28636 0 
1051 1 0.419909 -8.24275 0 
1053 1 1.54578 -8.20421 0 
1055 1 2.67256 -8.16953 0 
1057 1 3.80009 -8.13832 0 
1059 1 4.92833 -8.11017 0 
1061 1 6.05741 -8.08447 0 
1063 1 7.1871 -8.06101 0 
1065 1 8.31722 -8.03937 0 
1067 1 9.44768 -8.0194 0 
1069 1 10.5784 -8.00133 0 
1071 1 11.7095 -7.98484 0 
1073 1 12.8408 -7.96972 0 
1075 1 13.972 -7.9559 0 
1077 1 15.1033 -7.9434 0 
1079 1 16.2345 -7.932 0 
1081 1 17.3657 -7.92161 0 
1083 1 18.497 -7.9123 0 
1085 1 19.6285 -7.90384 0 
1087 1 20.7602 -7.89628 0 
1089 1 21.8917 -7.88929 0 
1091 1 23.0231 -7.88295 0 
1093 1 24.1545 -7.87697 0 
1095 2 25.2861 -7.87134 0 
1097 2 26.419 -7.86899 0 
1099 2 27.5519 -7.8668 0 
1102 2 -27.3381 -6.63684 0 
1104 2 -26.2124 -6.60035 0 
1106 2 -25.0865 -6.56307 0 
1108 1 -23.9596 -6.52382 0 
1109 1 -23.3636 -7.47378 0 
1110 1 -22.8319 -6.48236 0 
1111 1 -22.2347 -7.43122 0 
1112 1 -21.7036 -6.43947 0 
1113 1 -21.1054 -7.38719 0 
1114 1 -20.5749 -6.3946 0 
1115 1 -19.9757 -7.34129 0 
1116 1 -19.4457 -6.34791 0 
1117 1 -18.8455 -7.2936 0 
1119 1 -17.7148 -7.24411 0 
1121 1 -16.5834 -7.19242 0 
1123 1 -15.4514 -7.13865 0 
1125 1 -14.319 -7.08213 0 
1127 1 -13.1858 -7.02284 0 
1129 1 -12.0523 -6.96074 0 
1131 1 -10.9185 -6.89539 0 
1133 1 -9.78468 -6.82698 0 
1135 1 -8.65165 -6.75579 0 
1137 1 -7.51992 -6.68249 0 
1139 1 -6.39034 -6.60777 0 
1040 1 -5.79533 -7.55939 0 
1141 1 -5.26291 -6.5335 0 
1042 1 -4.6692 -7.49035 0 
1143 1 -4.13739 -6.46215 0 
1044 1 -3.54442 -7.42529 0 
1046 1 -2.42031 -7.36535 0 
1048 1 -1.29585 -7.31263 0 
1050 1 -0.170655 -7.26641 0 
1052 1 0.95574 -7.22617 0 
1054 1 2.08322 -7.19058 0 
1056 1 3.21177 -7.15851 0 
1058 1 4.34107 -7.12968 0 
1060 1 5.4711 -7.10364 0 
1062 1 6.60171 -7.07977 0 
1064 1 7.73271 -7.05797 0 
1066 1 8.86411 -7.0378 0 
1068 1 9.9957 -7.01948 0 
1070 1 11.1275 -7.00279 0 
1072 1 12.2595 -6.98745 0 
1074 1 13.3918 -6.97338 0 
1076 1 14.5239 -6.96068 0 
1078 1 15.6559 -6.94913 0 
1080 1 16.7879 -6.93867 0 
1082 1 17.9199 -6.92931 0 
1084 1 19.052 -6.92096 0 
1086 1 20.1842 -6.91338 0 
1088 1 21.3162 -6.90651 0 
1090 1 22.4482 -6.90039 0 
1092 1 23.5802 -6.8947 0 
1094 1 24.7124 -6.88958 0 
1096 2 25.8451 -6.88616 0 
1098 2 26.9784 -6.88422 0 
1100 2 28.1116 -6.88241 0 
1201 2 -27.9311 -5.68349 0 
1203 2 -26.806 -5.64742 0 
1205 2 -25.6808 -5.61059 0 