ITEM: TIMESTEP
1500
ITEM: NUMBER OF ATOMS
2850
ITEM: BOX BOUNDS ff ff pp
-42.092 42.092
-42.092 42.092
-0.280613 0.280613
ITEM: ATOMS id type xu yu zu 
1 2 -27.3398 -28.9988 0 
3 2 -26.2107 -28.9642 0 
5 2 -25.0816 -28.9291 0 
7 2 -23.9525 -28.8936 0 
9 2 -22.8235 -28.8577 0 
11 2 -21.6944 -28.8213 0 
13 2 -20.5655 -28.7844 0 
15 2 -19.4366 -28.7472 0 
17 2 -18.3079 -28.7095 0 
19 2 -17.1793 -28.6715 0 
21 2 -16.0508 -28.6331 0 
23 2 -14.9226 -28.5944 0 
25 2 -13.7947 -28.5554 0 
27 2 -12.667 -28.5163 0 
29 2 -11.5396 -28.477 0 
31 2 -10.4126 -28.4376 0 
33 2 -9.28592 -28.3982 0 
35 2 -8.15967 -28.3589 0 
37 2 -7.03386 -28.3198 0 
39 2 -5.90848 -28.281 0 
2 2 -26.7941 -28.0086 0 
4 2 -25.6649 -27.9736 0 
6 2 -24.5357 -27.9381 0 
8 2 -23.4065 -27.902 0 
10 2 -22.2773 -27.8656 0 
12 2 -21.1481 -27.8286 0 
14 2 -20.019 -27.7912 0 
16 2 -18.89 -27.7533 0 
18 2 -17.7611 -27.715 0 
20 2 -16.6324 -27.6763 0 
22 2 -15.5039 -27.6373 0 
24 2 -14.3755 -27.5979 0 
26 2 -13.2475 -27.5582 0 
28 2 -12.1197 -27.5183 0 
30 2 -10.9923 -27.4783 0 
32 2 -9.86522 -27.4382 0 
34 2 -8.73856 -27.3981 0 
36 2 -7.61233 -27.3581 0 
38 2 -6.48656 -27.3184 0 
40 2 -5.36126 -27.2789 0 
41 2 -4.78357 -28.2426 0 
42 2 -4.23645 -27.24 0 
43 2 -3.65912 -28.2046 0 
44 2 -3.11213 -27.2015 0 
45 2 -2.53513 -28.1673 0 
46 2 -1.98828 -27.1638 0 
47 2 -1.41159 -28.1307 0 
48 2 -0.8649 -27.1269 0 
49 2 -0.288464 -28.095 0 
51 2 0.834263 -28.0602 0 
53 2 1.95663 -28.0264 0 
55 2 3.07869 -27.9937 0 
57 2 4.20048 -27.9622 0 
59 2 5.32207 -27.9319 0 
61 2 6.4435 -27.9029 0 
63 2 7.56483 -27.8752 0 
65 2 8.68613 -27.8488 0 
67 2 9.80743 -27.8237 0 
69 2 10.9288 -27.8 0 
71 2 12.0503 -27.7775 0 
73 2 13.1719 -27.7563 0 
75 2 14.2937 -27.7363 0 
77 2 15.4157 -27.7174 0 
79 2 16.538 -27.6997 0 
81 2 17.6605 -27.683 0 
83 2 18.7832 -27.6673 0 
85 2 19.9063 -27.6526 0 
87 2 21.0296 -27.6388 0 
89 2 22.1532 -27.6258 0 
91 2 23.2771 -27.6136 0 
93 2 24.4012 -27.6022 0 
95 2 25.5256 -27.5914 0 
97 2 26.6503 -27.5812 0 
99 2 27.7752 -27.5717 0 
101 2 -27.378 -27.0533 0 
103 2 -26.2487 -27.0183 0 
102 2 -26.833 -26.0633 0 
105 2 -25.1194 -26.9828 0 
104 2 -25.7037 -26.0278 0 
107 2 -23.9901 -26.9468 0 
106 2 -24.5742 -25.9918 0 
109 2 -22.8607 -26.9102 0 
108 1 -23.4438 -25.9548 0 
111 2 -21.7314 -26.8732 0 
113 2 -20.6021 -26.8357 0 
115 2 -19.4729 -26.7977 0 
117 2 -18.3437 -26.7591 0 
119 2 -17.2147 -26.7202 0 
121 2 -16.0858 -26.6808 0 
123 2 -14.9572 -26.641 0 
125 2 -13.8287 -26.6009 0 
127 2 -12.7006 -26.5605 0 
129 2 -11.5727 -26.5198 0 
131 2 -10.4452 -26.479 0 
133 2 -9.31813 -26.4382 0 
135 2 -8.19146 -26.3973 0 
137 2 -7.06526 -26.3566 0 
139 2 -5.93954 -26.3162 0 
141 2 -4.81433 -26.2762 0 
143 2 -3.68963 -26.2366 0 
145 2 -2.56545 -26.1977 0 
147 2 -1.44177 -26.1596 0 
50 2 0.258046 -27.0909 0 
149 2 -0.318563 -26.1224 0 
52 2 1.38059 -27.056 0 
151 2 0.804196 -26.0862 0 
54 2 2.50279 -27.0222 0 
153 2 1.92656 -26.0512 0 
56 2 3.62468 -26.9896 0 
155 2 3.04857 -26.0174 0 
58 2 4.74633 -26.9582 0 
157 2 4.1703 -25.9849 0 
60 2 5.86779 -26.9282 0 
159 2 5.2918 -25.9538 0 
62 2 6.98913 -26.8996 0 
64 2 8.11041 -26.8723 0 
66 2 9.23169 -26.8465 0 
68 2 10.353 -26.822 0 
70 2 11.4745 -26.7989 0 
72 2 12.596 -26.7771 0 
74 2 13.7178 -26.7566 0 
76 2 14.8398 -26.7373 0 
78 2 15.962 -26.7192 0 
80 2 17.0845 -26.7023 0 
82 2 18.2073 -26.6863 0 
84 2 19.3304 -26.6714 0 
86 2 20.4538 -26.6575 0 
88 2 21.5774 -26.6444 0 
90 2 22.7014 -26.6321 0 
92 2 23.8256 -26.6206 0 
94 2 24.9501 -26.6098 0 
96 2 26.0749 -26.5996 0 
98 2 27.2 -26.5901 0 
100 2 28.3253 -26.5811 0 
201 2 -27.4179 -25.1085 0 
203 2 -26.2885 -25.0731 0 
205 2 -25.159 -25.0372 0 
207 2 -24.0295 -25.0007 0 
209 1 -22.8996 -24.9616 0 
110 1 -22.3149 -25.9173 0 
211 1 -21.7694 -24.9241 0 
112 1 -21.1854 -25.8801 0 
213 1 -20.6401 -24.8862 0 
114 1 -20.0565 -25.8431 0 
215 1 -19.5125 -24.8462 0 
116 1 -18.9298 -25.8042 0 
217 1 -18.3851 -24.8083 0 
118 1 -17.8011 -25.7642 0 
120 1 -16.6715 -25.7232 0 
122 1 -15.5427 -25.6829 0 
124 1 -14.4147 -25.643 0 
126 1 -13.2864 -25.6022 0 
128 1 -12.1577 -25.5597 0 
130 1 -11.0288 -25.5184 0 
132 1 -9.90043 -25.4777 0 
134 1 -8.77249 -25.4366 0 
136 1 -7.64724 -25.3949 0 
138 1 -6.5213 -25.3509 0 
140 1 -5.39484 -25.3102 0 
142 1 -4.27022 -25.2722 0 
144 1 -3.14511 -25.2316 0 
146 1 -2.02137 -25.1906 0 
148 1 -0.89913 -25.155 0 
150 1 0.224451 -25.1174 0 
152 1 1.34846 -25.0808 0 
154 1 2.47207 -25.0487 0 
156 1 3.59431 -25.0139 0 
158 1 4.71526 -24.9815 0 
160 1 5.83605 -24.9514 0 
161 2 6.41316 -25.9242 0 
162 1 6.95755 -24.9225 0 
163 2 7.53443 -25.896 0 
164 1 8.07928 -24.8954 0 
165 2 8.65568 -25.8693 0 
167 2 9.77697 -25.844 0 
166 1 9.20096 -24.8697 0 
169 2 10.8984 -25.8202 0 
168 1 10.3215 -24.8455 0 
171 2 12.0199 -25.7978 0 
170 1 11.444 -24.8211 0 
173 2 13.1416 -25.7768 0 
175 2 14.2636 -25.7571 0 
177 2 15.3858 -25.7386 0 
179 2 16.5083 -25.7213 0 
181 2 17.6311 -25.7052 0 
183 2 18.7543 -25.6901 0 
185 2 19.8777 -25.6759 0 
187 2 21.0014 -25.6627 0 
189 2 22.1254 -25.6504 0 
191 2 23.2498 -25.6388 0 
193 2 24.3744 -25.628 0 
195 2 25.4993 -25.6179 0 
197 2 26.6245 -25.6084 0 
199 2 27.75 -25.5994 0 
202 2 -26.8739 -24.1187 0 
204 2 -25.7444 -24.0828 0 
206 2 -24.6148 -24.0464 0 
208 1 -23.4857 -24.0082 0 
210 1 -22.3552 -23.969 0 
212 1 -21.2264 -23.9289 0 
214 1 -20.0981 -23.8896 0 
216 1 -18.968 -23.8507 0 
219 1 -17.2569 -24.7679 0 
218 1 -17.8398 -23.8116 0 
221 1 -16.1272 -24.7269 0 
220 1 -16.7119 -23.7716 0 
222 1 -15.5829 -23.73 0 
223 1 -14.9981 -24.6859 0 
224 1 -14.4529 -23.6881 0 
225 1 -13.8704 -24.6442 0 
227 1 -12.7436 -24.6018 0 
229 1 -11.6142 -24.5589 0 
231 1 -10.4838 -24.5165 0 
233 1 -9.35535 -24.4757 0 
235 1 -8.22805 -24.4322 0 
237 1 -7.10052 -24.3896 0 
239 1 -5.97248 -24.3476 0 
241 1 -4.84716 -24.3062 0 
243 1 -3.72503 -24.2656 0 
245 1 -2.60202 -24.2245 0 
247 1 -1.47741 -24.1855 0 
249 1 -0.35422 -24.1478 0 
251 1 0.769989 -24.1106 0 
253 1 1.89481 -24.0765 0 
255 1 3.01677 -24.0419 0 
257 1 4.13842 -24.0096 0 
259 1 5.25989 -23.9794 0 
261 1 6.38085 -23.9498 0 
263 1 7.50066 -23.9209 0 
265 1 8.62078 -23.8946 0 
267 1 9.74229 -23.8681 0 
269 1 10.8647 -23.846 0 
271 1 11.9873 -23.8218 0 
172 1 12.5665 -24.7977 0 
273 1 13.1101 -23.7997 0 
174 1 13.6884 -24.7778 0 
275 1 14.2345 -23.7811 0 
176 1 14.8107 -24.76 0 
277 1 15.3597 -23.7625 0 
178 1 15.9325 -24.7425 0 
279 1 16.4828 -23.7476 0 
180 1 17.0558 -24.7258 0 
281 1 17.6057 -23.7321 0 
182 1 18.1794 -24.71 0 
283 1 18.7282 -23.7141 0 
184 1 19.3014 -24.695 0 
285 1 19.8524 -23.7031 0 
186 1 20.4245 -24.6847 0 
287 1 20.9765 -23.6938 0 
188 1 21.5491 -24.6723 0 
289 1 22.1007 -23.6809 0 
190 1 22.6745 -24.6585 0 
291 1 23.2256 -23.6672 0 
192 1 23.7992 -24.6476 0 
293 1 24.35 -23.6555 0 
194 1 24.9237 -24.6362 0 
295 2 25.4729 -23.6443 0 
196 2 26.0488 -24.6264 0 
198 2 27.1745 -24.6176 0 
200 2 28.3003 -24.6093 0 
301 2 -27.4598 -23.1644 0 
303 2 -26.3303 -23.1287 0 
305 2 -25.2007 -23.0924 0 
307 2 -24.071 -23.0555 0 
309 1 -22.9415 -23.0159 0 
311 1 -21.8121 -22.9739 0 
313 1 -20.6835 -22.9339 0 
315 1 -19.5539 -22.8959 0 
317 1 -18.4241 -22.8555 0 
319 1 -17.296 -22.8152 0 
321 1 -16.1676 -22.7736 0 
323 1 -15.0369 -22.7321 0 
226 1 -13.3239 -23.643 0 
325 1 -13.9065 -22.6877 0 
327 1 -12.7768 -22.6436 0 
228 1 -12.1951 -23.601 0 
329 1 -11.649 -22.5998 0 
230 1 -11.0665 -23.5579 0 
331 1 -10.5211 -22.5572 0 
232 1 -9.93806 -23.5141 0 
333 1 -9.39212 -22.5126 0 
234 1 -8.81022 -23.4712 0 
236 1 -7.68117 -23.4283 0 
238 1 -6.55251 -23.3857 0 
240 1 -5.42736 -23.3425 0 
242 1 -4.30331 -23.2991 0 
244 1 -3.17986 -23.2573 0 
246 1 -2.05733 -23.218 0 
248 1 -0.9343 -23.1778 0 
250 1 0.189316 -23.1406 0 
252 1 1.3135 -23.1058 0 
254 1 2.43644 -23.0704 0 
256 1 3.55943 -23.0375 0 
258 1 4.68083 -23.0056 0 
260 1 5.80156 -22.9758 0 
262 1 6.9232 -22.9464 0 
264 1 8.04434 -22.918 0 
266 1 9.16446 -22.8918 0 
268 1 10.2862 -22.868 0 
270 1 11.4085 -22.8455 0 
272 1 12.5315 -22.8236 0 
274 1 13.6546 -22.8033 0 
276 1 14.7789 -22.7854 0 
278 1 15.9039 -22.7679 0 
280 1 17.028 -22.753 0 
282 1 18.1506 -22.7361 0 
284 1 19.2752 -22.722 0 
286 1 20.3994 -22.7123 0 
288 1 21.5229 -22.7014 0 
290 1 22.647 -22.6884 0 
292 1 23.7728 -22.6762 0 
294 1 24.8985 -22.6632 0 
297 2 26.5987 -23.6355 0 
296 2 26.0228 -22.6533 0 
299 2 27.7248 -23.6273 0 
298 2 27.149 -22.6452 0 
300 2 28.2755 -22.6376 0 
302 2 -26.9167 -22.1747 0 
304 2 -25.7871 -22.1385 0 
306 2 -24.6574 -22.1018 0 
308 1 -23.5281 -22.0636 0 
310 1 -22.3982 -22.0225 0 
312 1 -21.2679 -21.9797 0 
314 1 -20.1393 -21.9414 0 
316 1 -19.011 -21.9016 0 
318 1 -17.882 -21.8599 0 
320 1 -16.7525 -21.8182 0 
322 1 -15.6219 -21.7761 0 
324 1 -14.4915 -21.733 0 
326 1 -13.3616 -21.6878 0 
328 1 -12.2331 -21.6433 0 
330 1 -11.1039 -21.5999 0 
332 1 -9.97446 -21.5568 0 
334 1 -8.84589 -21.5109 0 
335 1 -8.2637 -22.4682 0 
336 1 -7.72001 -21.4644 0 
337 1 -7.13626 -22.4244 0 
338 1 -6.59452 -21.4182 0 
339 1 -6.01069 -22.3782 0 
340 1 -5.46731 -21.3704 0 
341 1 -4.8861 -22.3349 0 
343 1 -3.76131 -22.2912 0 
345 1 -2.63897 -22.2489 0 
347 1 -1.51721 -22.2102 0 
349 1 -0.392702 -22.1716 0 
351 1 0.731002 -22.1357 0 
353 1 1.85417 -22.1004 0 
355 1 2.978 -22.0664 0 
357 1 4.09985 -22.0327 0 
359 1 5.22255 -22.0002 0 
361 1 6.34486 -21.9716 0 
363 1 7.46651 -21.943 0 
365 1 8.58836 -21.9151 0 
367 1 9.70982 -21.8907 0 
369 1 10.8309 -21.8671 0 
371 1 11.9527 -21.8454 0 
373 1 13.0762 -21.8258 0 
375 1 14.201 -21.8072 0 
377 1 15.3244 -21.7897 0 
379 1 16.448 -21.7734 0 
381 1 17.5717 -21.7566 0 
383 1 18.6963 -21.7431 0 
385 1 19.8218 -21.7311 0 
387 1 20.9459 -21.7204 0 
389 1 22.0696 -21.7086 0 
391 1 23.1951 -21.6971 0 
393 1 24.3207 -21.6844 0 
395 2 25.4466 -21.6709 0 
397 2 26.573 -21.6629 0 
399 2 27.6998 -21.6554 0 
401 2 -27.5037 -21.2208 0 
403 2 -26.3741 -21.1849 0 
402 2 -26.9617 -20.2313 0 
405 2 -25.2445 -21.1483 0 
404 2 -25.8321 -20.1949 0 
407 2 -24.1147 -21.111 0 
409 1 -22.9864 -21.0712 0 
411 1 -21.8564 -21.029 0 
413 1 -20.725 -20.9865 0 
415 1 -19.5968 -20.9468 0 
417 1 -18.4688 -20.9054 0 
419 1 -17.3391 -20.8642 0 
421 1 -16.209 -20.8217 0 
423 1 -15.0788 -20.7782 0 
425 1 -13.9487 -20.7342 0 
427 1 -12.8179 -20.6884 0 
429 1 -11.687 -20.6433 0 
431 1 -10.5577 -20.5992 0 
433 1 -9.42955 -20.5534 0 
435 1 -8.30188 -20.5056 0 
437 1 -7.17547 -20.4581 0 
439 1 -6.05076 -20.4114 0 
342 1 -4.34222 -21.3258 0 
441 1 -4.92438 -20.3628 0 
344 1 -3.22026 -21.2819 0 
443 1 -3.80052 -20.3157 0 
346 1 -2.0976 -21.2418 0 
445 1 -2.67736 -20.2749 0 
348 1 -0.973379 -21.2038 0 
447 1 -1.55251 -20.2352 0 
350 1 0.150601 -21.1661 0 
352 1 1.27422 -21.1299 0 
354 1 2.39763 -21.0954 0 
356 1 3.51917 -21.0601 0 
358 1 4.64138 -21.0282 0 
360 1 5.76393 -20.9961 0 
362 1 6.88438 -20.9664 0 
364 1 8.00603 -20.9386 0 
366 1 9.12948 -20.9137 0 
368 1 10.252 -20.8896 0 
370 1 11.3744 -20.8669 0 
372 1 12.4963 -20.8476 0 
374 1 13.6201 -20.829 0 
376 1 14.7452 -20.8112 0 
378 1 15.8689 -20.794 0 
380 1 16.9915 -20.7769 0 
382 1 18.1163 -20.763 0 
384 1 19.2426 -20.7523 0 
386 1 20.3692 -20.7392 0 
388 1 21.4944 -20.7279 0 
390 1 22.6203 -20.7179 0 
392 1 23.7459 -20.7053 0 
394 1 24.8715 -20.6914 0 
396 2 25.9969 -20.6804 0 
398 2 27.1238 -20.673 0 
400 2 28.251 -20.6661 0 
501 2 -27.5497 -19.2779 0 
503 2 -26.4202 -19.2417 0 
505 2 -25.2906 -19.2049 0 
406 2 -24.7023 -20.1579 0 
507 2 -24.1608 -19.1673 0 
408 1 -23.5738 -20.1184 0 
509 1 -23.0306 -19.1246 0 
410 1 -22.4449 -20.0772 0 
511 1 -21.9003 -19.0832 0 
412 1 -21.3142 -20.0353 0 
513 1 -20.7707 -19.0405 0 
414 1 -20.1829 -19.9924 0 
416 1 -19.0537 -19.9497 0 
418 1 -17.9259 -19.9089 0 
420 1 -16.7975 -19.8676 0 
422 1 -15.6672 -19.8253 0 
424 1 -14.5353 -19.7807 0 
426 1 -13.4042 -19.7342 0 
428 1 -12.2735 -19.6888 0 
430 1 -11.1439 -19.6414 0 
432 1 -10.015 -19.5948 0 
434 1 -8.88685 -19.5466 0 
436 1 -7.75981 -19.4988 0 
438 1 -6.63377 -19.4504 0 
440 1 -5.50922 -19.402 0 
442 1 -4.38588 -19.3532 0 
444 1 -3.26091 -19.3084 0 
446 1 -2.13581 -19.2672 0 
448 1 -1.01122 -19.2261 0 
449 1 -0.42789 -20.1952 0 
450 1 0.113441 -19.188 0 
451 1 0.695589 -20.1589 0 
452 1 1.23576 -19.1502 0 
453 1 1.81903 -20.1223 0 
454 1 2.35723 -19.1118 0 
455 1 2.94028 -20.0858 0 
456 1 3.47908 -19.0778 0 
457 1 4.06137 -20.0538 0 
459 1 5.18208 -20.0211 0 
461 1 6.30279 -19.9901 0 
463 1 7.42399 -19.9614 0 
465 1 8.54633 -19.9361 0 
467 1 9.66891 -19.9124 0 
469 1 10.7927 -19.8899 0 
471 1 11.9161 -19.868 0 
473 1 13.039 -19.8502 0 
475 1 14.1631 -19.832 0 
477 1 15.2868 -19.8146 0 
479 1 16.4114 -19.7985 0 
481 1 17.5363 -19.784 0 
483 1 18.6615 -19.771 0 
485 1 19.7877 -19.7603 0 
487 1 20.9157 -19.7482 0 
489 1 22.0428 -19.7372 0 
491 1 23.169 -19.7255 0 
493 1 24.2948 -19.7124 0 
495 2 25.4205 -19.6978 0 
497 2 26.5477 -19.6905 0 
499 2 27.6751 -19.6838 0 
502 2 -27.0088 -18.2886 0 
504 2 -25.8793 -18.252 0 
506 2 -24.7497 -18.2147 0 
508 1 -23.6177 -18.1738 0 
510 1 -22.4865 -18.1314 0 
512 1 -21.3571 -18.0884 0 
514 1 -20.2288 -18.0443 0 
515 1 -19.6414 -18.9966 0 
516 1 -19.0995 -18.0007 0 
517 1 -18.5119 -18.953 0 
518 1 -17.9691 -17.9575 0 
519 1 -17.3835 -18.9118 0 
520 1 -16.839 -17.9162 0 
521 1 -16.254 -18.8715 0 
523 1 -15.124 -18.829 0 
525 1 -13.9931 -18.7813 0 
527 1 -12.8611 -18.7333 0 
529 1 -11.7325 -18.6859 0 
531 1 -10.6037 -18.6387 0 
533 1 -9.47448 -18.5896 0 
535 1 -8.34603 -18.5408 0 
537 1 -7.21974 -18.4905 0 
539 1 -6.09488 -18.4406 0 
541 1 -4.96918 -18.3894 0 
543 1 -3.84452 -18.3429 0 
545 1 -2.71975 -18.2997 0 
547 1 -1.59566 -18.2573 0 
549 1 -0.471668 -18.219 0 
551 1 0.650963 -18.1799 0 
553 1 1.77209 -18.1414 0 
555 1 2.89308 -18.1051 0 
557 1 4.01462 -18.0703 0 
458 1 4.60055 -19.045 0 
559 1 5.13773 -18.0383 0 
460 1 5.72191 -19.014 0 
561 1 6.25941 -18.0085 0 
462 1 6.84255 -18.9854 0 
563 1 7.38175 -17.9821 0 
464 1 7.96481 -18.9588 0 
565 1 8.50394 -17.9567 0 
466 1 9.08686 -18.934 0 
567 1 9.62715 -17.9324 0 
468 1 10.209 -18.9111 0 
569 1 10.7513 -17.9102 0 
470 1 11.3326 -18.89 0 
472 1 12.4583 -18.8707 0 
474 1 13.5835 -18.8542 0 
476 1 14.71 -18.8359 0 
478 1 15.8361 -18.8197 0 
480 1 16.9608 -18.8044 0 
482 1 18.0854 -18.7913 0 
484 1 19.2109 -18.7792 0 
486 1 20.3369 -18.7691 0 
488 1 21.4646 -18.757 0 
490 1 22.5914 -18.7452 0 
492 1 23.7178 -18.7319 0 
494 1 24.8443 -18.7183 0 
496 2 25.9714 -18.7078 0 
498 2 27.0991 -18.7012 0 
500 2 28.2271 -18.6951 0 
601 2 -27.5979 -17.3354 0 
603 2 -26.4686 -17.2992 0 
605 2 -25.3391 -17.2621 0 
607 2 -24.2094 -17.2244 0 
609 1 -23.0769 -17.1814 0 
611 1 -21.9455 -17.1375 0 
613 1 -20.8161 -17.0923 0 
615 1 -19.6868 -17.0482 0 
617 1 -18.5566 -17.0045 0 
619 1 -17.4264 -16.9617 0 
522 1 -15.7095 -17.8744 0 
621 1 -16.2963 -16.9189 0 
524 1 -14.5804 -17.8288 0 
623 1 -15.1667 -16.8744 0 
526 1 -13.4503 -17.7809 0 
625 1 -14.0369 -16.8279 0 
528 1 -12.321 -17.7306 0 
627 1 -12.9075 -16.7783 0 
530 1 -11.1933 -17.6838 0 
532 1 -10.0638 -17.6357 0 
534 1 -8.93412 -17.5845 0 
536 1 -7.80618 -17.5328 0 
538 1 -6.67875 -17.4796 0 
540 1 -5.55348 -17.4284 0 
542 1 -4.42868 -17.3783 0 
544 1 -3.30377 -17.3333 0 
546 1 -2.17895 -17.29 0 
548 1 -1.05451 -17.25 0 
550 1 0.069273 -17.2116 0 
552 1 1.19246 -17.1711 0 
554 1 2.31343 -17.1327 0 
556 1 3.43428 -17.0966 0 
558 1 4.5569 -17.0645 0 
560 1 5.67996 -17.0321 0 
562 1 6.80211 -17.0052 0 
564 1 7.92487 -16.9787 0 
566 1 9.04736 -16.9552 0 
568 1 10.1711 -16.9323 0 
571 1 11.876 -17.8929 0 
570 1 11.297 -16.913 0 
573 1 13.0034 -17.875 0 
572 1 12.4231 -16.8968 0 
575 1 14.1303 -17.859 0 
574 1 13.5511 -16.8795 0 
577 1 15.2575 -17.8412 0 
576 1 14.6783 -16.8641 0 
579 1 16.3843 -17.8244 0 
578 1 15.8058 -16.8478 0 
581 1 17.5092 -17.8113 0 
580 1 16.9321 -16.8303 0 
583 1 18.635 -17.7992 0 
582 1 18.0577 -16.8187 0 
585 1 19.7623 -17.7885 0 
584 1 19.1852 -16.808 0 
587 1 20.8893 -17.7772 0 
586 1 20.3128 -16.7968 0 
589 1 22.016 -17.7631 0 
588 1 21.4405 -16.7837 0 
591 1 23.1415 -17.7521 0 
590 1 22.5674 -16.7707 0 
593 1 24.2675 -17.739 0 
592 1 23.6923 -16.7588 0 
595 2 25.3948 -17.725 0 
594 1 24.819 -16.7467 0 
596 2 25.9465 -16.7357 0 
597 2 26.5229 -17.7186 0 
598 2 27.0751 -16.7299 0 
599 2 27.6512 -17.7126 0 
600 2 28.2039 -16.7246 0 
602 2 -27.0583 -16.3463 0 
604 2 -25.929 -16.3096 0 
606 2 -24.7995 -16.2721 0 
608 1 -23.668 -16.2318 0 
610 1 -22.536 -16.188 0 
612 1 -21.4057 -16.1421 0 
614 1 -20.2757 -16.0956 0 
616 1 -19.1467 -16.0511 0 
618 1 -18.0158 -16.0077 0 
620 1 -16.8855 -15.9649 0 
622 1 -15.755 -15.9206 0 
624 1 -14.6256 -15.8734 0 
626 1 -13.4959 -15.826 0 
628 1 -12.3649 -15.7745 0 
629 1 -11.7789 -16.728 0 
630 1 -11.234 -15.7244 0 
631 1 -10.6501 -16.6811 0 
632 1 -10.1059 -15.6715 0 
633 1 -9.52151 -16.6285 0 
634 1 -8.97918 -15.6183 0 
635 1 -8.39287 -16.5752 0 
637 1 -7.26601 -16.5209 0 
639 1 -6.13999 -16.4682 0 
641 1 -5.01394 -16.4173 0 
643 1 -3.88915 -16.3694 0 
645 1 -2.76405 -16.3256 0 
647 1 -1.63917 -16.2829 0 
649 1 -0.514908 -16.2421 0 
651 1 0.608012 -16.201 0 
653 1 1.73028 -16.1604 0 
655 1 2.85307 -16.1235 0 
657 1 3.97684 -16.0897 0 
659 1 5.0999 -16.0588 0 
661 1 6.22308 -16.0278 0 
663 1 7.34598 -16.0021 0 
665 1 8.46863 -15.9773 0 
667 1 9.59195 -15.9543 0 
669 1 10.7184 -15.9348 0 
671 1 11.8444 -15.9176 0 
673 1 12.9711 -15.901 0 
675 1 14.0984 -15.885 0 
677 1 15.2255 -15.8699 0 
679 1 16.3532 -15.8533 0 
681 1 17.4813 -15.8378 0 
683 1 18.6083 -15.8269 0 
685 1 19.735 -15.8156 0 
687 1 20.8613 -15.804 0 
689 1 21.9888 -15.7912 0 
691 1 23.1168 -15.7784 0 
693 1 24.2435 -15.7661 0 
695 2 25.3699 -15.7527 0 
697 2 26.4989 -15.7471 0 
699 2 27.6281 -15.742 0 
701 2 -27.6483 -15.3934 0 
703 2 -26.5193 -15.357 0 
705 2 -25.3901 -15.3199 0 
707 2 -24.2607 -15.282 0 
709 1 -23.1277 -15.2376 0 
711 1 -21.9983 -15.1924 0 
713 1 -20.8683 -15.1454 0 
715 1 -19.7385 -15.0978 0 
717 1 -18.6068 -15.0559 0 
719 1 -17.4747 -15.0125 0 
721 1 -16.3445 -14.9694 0 
723 1 -15.2155 -14.9205 0 
725 1 -14.0851 -14.872 0 
727 1 -12.9542 -14.8218 0 
729 1 -11.8237 -14.7695 0 
731 1 -10.695 -14.7161 0 
733 1 -9.5667 -14.6623 0 
636 1 -7.85321 -15.5642 0 
735 1 -8.43919 -14.6096 0 
638 1 -6.72604 -15.5098 0 
737 1 -7.31299 -14.5533 0 
640 1 -5.59991 -15.4575 0 
739 1 -6.1867 -14.4983 0 
642 1 -4.47515 -15.4063 0 
644 1 -3.34882 -15.361 0 
646 1 -2.22291 -15.3161 0 
648 1 -1.09957 -15.2715 0 
650 1 0.0227501 -15.2287 0 
652 1 1.14502 -15.1891 0 
654 1 2.26747 -15.1529 0 
656 1 3.39111 -15.1163 0 
658 1 4.51549 -15.0842 0 
660 1 5.63936 -15.054 0 
662 1 6.76451 -15.025 0 
664 1 7.88874 -14.9997 0 
666 1 9.01242 -14.9765 0 
668 1 10.1381 -14.9567 0 
670 1 11.2641 -14.9373 0 
672 1 12.3899 -14.922 0 
674 1 13.5168 -14.9063 0 
676 1 14.6439 -14.8902 0 
678 1 15.7719 -14.8744 0 
680 1 16.9014 -14.8606 0 
682 1 18.0316 -14.8472 0 
684 1 19.1591 -14.8351 0 
686 1 20.2859 -14.8226 0 
688 1 21.4132 -14.8114 0 
690 1 22.5414 -14.7988 0 
692 1 23.6694 -14.7857 0 
694 1 24.7961 -14.7739 0 
696 2 25.9226 -14.7642 0 
698 2 27.0521 -14.7592 0 
700 2 28.1818 -14.7547 0 
702 2 -27.11 -14.4044 0 
801 2 -27.7009 -13.4516 0 
704 2 -25.9811 -14.3676 0 
803 2 -26.5724 -13.4152 0 
706 2 -24.852 -14.3301 0 
805 2 -25.4437 -13.3781 0 
708 1 -23.7208 -14.2881 0 
807 2 -24.3146 -13.3401 0 
710 1 -22.5904 -14.2413 0 
809 1 -23.1831 -13.292 0 
712 1 -21.4605 -14.1951 0 
714 1 -20.3304 -14.1471 0 
716 1 -19.1993 -14.1051 0 
718 1 -18.0674 -14.0629 0 
720 1 -16.9359 -14.0185 0 
722 1 -15.8063 -13.971 0 
724 1 -14.676 -13.9205 0 
726 1 -13.5452 -13.87 0 
728 1 -12.4155 -13.8173 0 
730 1 -11.2865 -13.7632 0 
732 1 -10.1568 -13.7092 0 
734 1 -9.02807 -13.6545 0 
736 1 -7.90245 -13.5972 0 
738 1 -6.77519 -13.5406 0 
740 1 -5.64863 -13.4849 0 
741 1 -5.0609 -14.445 0 
742 1 -4.52169 -13.4348 0 
743 1 -3.93443 -14.3974 0 
744 1 -3.39659 -13.3856 0 
745 1 -2.8087 -14.3505 0 
746 1 -2.27374 -13.337 0 
747 1 -1.68518 -14.3022 0 
749 1 -0.561512 -14.26 0 
751 1 0.562516 -14.2206 0 
753 1 1.68602 -14.1823 0 
755 1 2.80901 -14.1467 0 
757 1 3.93416 -14.1115 0 
759 1 5.05737 -14.08 0 
761 1 6.18135 -14.0499 0 
763 1 7.30726 -14.0219 0 
765 1 8.43279 -13.9978 0 
767 1 9.55877 -13.9775 0 
769 1 10.6849 -13.9593 0 
771 1 11.8121 -13.9417 0 
773 1 12.9389 -13.9258 0 
775 1 14.0667 -13.911 0 
777 1 15.1954 -13.8945 0 
779 1 16.3234 -13.8806 0 
781 1 17.4518 -13.869 0 
783 1 18.5815 -13.856 0 
785 1 19.7111 -13.8433 0 
787 1 20.8407 -13.8312 0 
789 1 21.9689 -13.8199 0 
791 1 23.0969 -13.8057 0 
793 1 24.2233 -13.7938 0 
795 2 25.3462 -13.7811 0 
797 2 26.4761 -13.7764 0 
799 2 27.6062 -13.772 0 
802 2 -27.164 -12.4626 0 
804 2 -26.0357 -12.4259 0 
806 2 -24.9071 -12.3884 0 
808 1 -23.7767 -12.3444 0 
810 1 -22.6459 -12.2954 0 
811 1 -22.0526 -13.2445 0 
812 1 -21.5148 -12.2498 0 
813 1 -20.922 -13.198 0 
814 1 -20.3831 -12.2055 0 
815 1 -19.7913 -13.1546 0 
816 1 -19.2514 -12.1627 0 
817 1 -18.6601 -13.1133 0 
818 1 -18.1209 -12.1176 0 
819 1 -17.5286 -13.0682 0 
821 1 -16.398 -13.0212 0 
823 1 -15.268 -12.9714 0 
825 1 -14.1387 -12.9208 0 
827 1 -13.0093 -12.869 0 
829 1 -11.8788 -12.8151 0 
831 1 -10.7476 -12.7592 0 
833 1 -9.6187 -12.7023 0 
835 1 -8.49155 -12.6421 0 
837 1 -7.36323 -12.5836 0 
839 1 -6.23408 -12.5256 0 
841 1 -5.10732 -12.4725 0 
843 1 -3.98355 -12.4207 0 
845 1 -2.8597 -12.3694 0 
748 1 -1.14889 -13.2936 0 
847 1 -1.73283 -12.3259 0 
849 1 -0.608064 -12.2799 0 
750 1 -0.025017 -13.2526 0 
851 1 0.5147 -12.2384 0 
752 1 1.09829 -13.2126 0 
853 1 1.6389 -12.202 0 
754 1 2.22322 -13.1759 0 
756 1 3.3492 -13.1406 0 
758 1 4.47465 -13.1051 0 
760 1 5.59828 -13.0741 0 
762 1 6.72217 -13.0459 0 
764 1 7.84882 -13.021 0 
766 1 8.97622 -12.9986 0 
768 1 10.1049 -12.9804 0 
770 1 11.234 -12.9635 0 
772 1 12.3632 -12.9456 0 
774 1 13.4911 -12.9299 0 
776 1 14.619 -12.9152 0 
778 1 15.7484 -12.8995 0 
780 1 16.876 -12.8877 0 
782 1 18.0028 -12.8759 0 
784 1 19.1327 -12.8644 0 
786 1 20.2626 -12.8523 0 
788 1 21.3927 -12.8404 0 
790 1 22.5196 -12.8272 0 
792 1 23.6478 -12.8142 0 
794 1 24.7732 -12.8006 0 
796 2 25.9 -12.7934 0 
798 2 27.0306 -12.7893 0 
800 2 28.1612 -12.7854 0 
901 2 -27.7557 -11.5099 0 
903 2 -26.6279 -11.4735 0 
905 2 -25.4997 -11.4364 0 
907 2 -24.3713 -11.3985 0 
909 1 -23.2391 -11.3484 0 
911 1 -22.1079 -11.3017 0 
913 1 -20.9768 -11.2577 0 
915 1 -19.8455 -11.2137 0 
917 1 -18.7154 -11.1681 0 
820 1 -16.991 -12.0704 0 
919 1 -17.5852 -11.121 0 
822 1 -15.8615 -12.0226 0 
921 1 -16.4543 -11.0735 0 
824 1 -14.731 -11.9725 0 
923 1 -15.3238 -11.0261 0 
826 1 -13.6009 -11.9215 0 
828 1 -12.4711 -11.8686 0 
830 1 -11.3396 -11.8128 0 
832 1 -10.2094 -11.7532 0 
834 1 -9.08173 -11.6907 0 
836 1 -7.95262 -11.6297 0 
838 1 -6.82333 -11.5709 0 
840 1 -5.69594 -11.5124 0 
842 1 -4.57041 -11.4571 0 
844 1 -3.44445 -11.4034 0 
846 1 -2.3173 -11.3562 0 
848 1 -1.19469 -11.3076 0 
850 1 -0.0700671 -11.2634 0 
852 1 1.0562 -11.2269 0 
855 1 2.76217 -12.1659 0 
854 1 2.17888 -11.189 0 
857 1 3.88819 -12.1295 0 
856 1 3.30286 -11.1554 0 
859 1 5.01468 -12.0971 0 
858 1 4.43068 -11.1208 0 
861 1 6.14192 -12.0693 0 
860 1 5.55966 -11.0915 0 
863 1 7.26852 -12.0452 0 
862 1 6.68836 -11.0668 0 
865 1 8.39582 -12.0217 0 
864 1 7.81696 -11.0447 0 
867 1 9.52556 -12.0016 0 
869 1 10.6545 -11.984 0 
871 1 11.7833 -11.9674 0 
873 1 12.9127 -11.9505 0 
875 1 14.0416 -11.9353 0 
877 1 15.1697 -11.9195 0 
879 1 16.2996 -11.9052 0 
881 1 17.427 -11.8934 0 
883 1 18.5556 -11.8839 0 
885 1 19.6844 -11.8707 0 
887 1 20.8134 -11.8598 0 
889 1 21.9404 -11.8474 0 
891 1 23.0675 -11.8342 0 
893 1 24.1964 -11.8217 0 
895 2 25.3239 -11.8103 0 
897 2 26.4549 -11.8064 0 
899 2 27.586 -11.8028 0 
902 2 -27.2202 -10.5209 0 
904 2 -26.0925 -10.4842 0 
906 2 -24.9646 -10.4468 0 
908 1 -23.8346 -10.4035 0 
910 1 -22.7033 -10.3551 0 
912 1 -21.5722 -10.31 0 
914 1 -20.4412 -10.2663 0 
916 1 -19.3109 -10.22 0 
918 1 -18.18 -10.1733 0 
920 1 -17.0486 -10.1264 0 
922 1 -15.9179 -10.0795 0 
924 1 -14.7874 -10.0289 0 
925 1 -14.1933 -10.9736 0 
926 1 -13.6555 -9.97303 0 
927 1 -13.0635 -10.9206 0 
928 1 -12.5241 -9.91817 0 
929 1 -11.9318 -10.8659 0 
930 1 -11.3933 -9.85671 0 
931 1 -10.8014 -10.8047 0 
933 1 -9.67352 -10.7413 0 
935 1 -8.54402 -10.6797 0 
937 1 -7.41463 -10.6185 0 
939 1 -6.28715 -10.5575 0 
941 1 -5.1595 -10.4971 0 
943 1 -4.03175 -10.4409 0 
945 1 -2.90555 -10.3892 0 
947 1 -1.78371 -10.3366 0 
949 1 -0.659042 -10.292 0 
951 1 0.466767 -10.2544 0 
953 1 1.59181 -10.214 0 
955 1 2.71767 -10.1805 0 
957 1 3.84429 -10.1476 0 
959 1 4.97311 -10.1155 0 
961 1 6.10437 -10.0886 0 
963 1 7.23396 -10.0651 0 
965 1 8.36334 -10.0466 0 
866 1 8.94728 -11.0239 0 
967 1 9.49517 -10.0254 0 
868 1 10.0771 -11.0043 0 
969 1 10.6258 -10.0076 0 
870 1 11.2057 -10.9879 0 
971 1 11.7539 -9.99004 0 
872 1 12.3332 -10.9712 0 
973 1 12.8825 -9.97511 0 
874 1 13.4628 -10.9553 0 
975 1 14.0117 -9.95829 0 
876 1 14.591 -10.9383 0 
977 1 15.1421 -9.94212 0 
878 1 15.7188 -10.9237 0 
979 1 16.2729 -9.92986 0 
880 1 16.8472 -10.9112 0 
981 1 17.4013 -9.91804 0 
882 1 17.9757 -10.9008 0 
983 1 18.5293 -9.90762 0 
884 1 19.1053 -10.8904 0 
985 1 19.6579 -9.89756 0 
886 1 20.2348 -10.8772 0 
987 1 20.7887 -9.88476 0 
888 1 21.3647 -10.8655 0 
890 1 22.4927 -10.8554 0 
989 1 21.9192 -9.87446 0 
892 1 23.6217 -10.8422 0 
991 1 23.0465 -9.86352 0 
894 1 24.75 -10.8298 0 
993 1 24.1747 -9.85035 0 
896 2 25.8793 -10.8234 0 
995 2 25.3037 -9.84035 0 
898 2 27.0108 -10.8201 0 
997 2 26.4357 -9.83726 0 
900 2 28.1423 -10.817 0 
999 2 27.5677 -9.8344 0 
1001 2 -27.8125 -9.56805 0 
1003 2 -26.6854 -9.5318 0 
1005 2 -25.5581 -9.49477 0 
1007 2 -24.4305 -9.45693 0 
1009 1 -23.301 -9.41017 0 
1011 1 -22.1703 -9.36399 0 
1013 1 -21.0391 -9.31972 0 
1015 1 -19.9081 -9.27364 0 
1017 1 -18.7769 -9.22644 0 
1019 1 -17.6447 -9.18016 0 
1021 1 -16.5132 -9.13285 0 
1023 1 -15.3829 -9.08378 0 
1025 1 -14.2511 -9.0294 0 
1027 1 -13.1189 -8.97211 0 
1029 1 -11.9888 -8.91245 0 
932 1 -10.2642 -9.79197 0 
1031 1 -10.8579 -8.84672 0 
934 1 -9.13449 -9.73068 0 
1033 1 -9.727 -8.78278 0 
936 1 -8.00628 -9.66772 0 
1035 1 -8.59827 -8.71779 0 
938 1 -6.87774 -9.60321 0 
940 1 -5.74837 -9.54012 0 
942 1 -4.61848 -9.48042 0 
944 1 -3.49254 -9.42343 0 
946 1 -2.37002 -9.36962 0 
948 1 -1.24304 -9.32397 0 
950 1 -0.116471 -9.27897 0 
952 1 1.00733 -9.23895 0 
954 1 2.13494 -9.20367 0 
956 1 3.26163 -9.16975 0 
958 1 4.3891 -9.13984 0 
960 1 5.51932 -9.11382 0 
962 1 6.64968 -9.08732 0 
964 1 7.7793 -9.06512 0 
966 1 8.90852 -9.04794 0 
968 1 10.0407 -9.02884 0 
970 1 11.1719 -9.00981 0 
972 1 12.3034 -8.9948 0 
974 1 13.4329 -8.97785 0 
976 1 14.5634 -8.96267 0 
978 1 15.6947 -8.9484 0 
980 1 16.8256 -8.93704 0 
982 1 17.9559 -8.92468 0 
984 1 19.0848 -8.91451 0 
986 1 20.213 -8.90592 0 
988 1 21.3427 -8.89334 0 
990 1 22.4711 -8.88261 0 
992 1 23.6001 -8.87203 0 
994 1 24.7303 -8.86098 0 
996 2 25.8608 -8.85435 0 
998 2 26.9933 -8.85174 0 
1000 2 28.1257 -8.84931 0 
1002 2 -27.2783 -8.57905 0 
1101 2 -27.8711 -7.62598 0 
1004 2 -26.1516 -8.54247 0 
1103 2 -26.7449 -7.58983 0 
1006 2 -25.0246 -8.50509 0 
1105 2 -25.6186 -7.5529 0 
1008 1 -23.8964 -8.46332 0 
1107 2 -24.492 -7.51516 0 
1010 1 -22.7678 -8.41835 0 
1012 1 -21.6382 -8.37396 0 
1014 1 -20.5075 -8.32823 0 
1016 1 -19.3755 -8.28021 0 
1018 1 -18.2436 -8.23462 0 
1020 1 -17.1118 -8.18678 0 
1022 1 -15.9811 -8.13717 0 
1024 1 -14.8495 -8.08552 0 
1026 1 -13.7175 -8.02909 0 
1028 1 -12.587 -7.97014 0 
1030 1 -11.4566 -7.90601 0 
1032 1 -10.3248 -7.83918 0 
1034 1 -9.19359 -7.77223 0 
1036 1 -8.063 -7.70268 0 
1037 1 -7.46852 -8.65089 0 
1038 1 -6.9325 -7.63362 0 
1039 1 -6.33805 -8.58462 0 
1041 1 -5.20961 -8.52151 0 
1043 1 -4.08482 -8.46041 0 
1045 1 -2.959 -8.40208 0 
1047 1 -1.83123 -8.35494 0 
1049 1 -0.70466 -8.30511 0 
1051 1 0.421017 -8.26123 0 
1053 1 1.5487 -8.22642 0 
1055 1 2.67384 -8.191 0 
1057 1 3.80329 -8.16215 0 
1059 1 4.93321 -8.13549 0 
1061 1 6.06425 -8.11169 0 
1063 1 7.19527 -8.0865 0 
1065 1 8.32544 -8.06636 0 
1067 1 9.45631 -8.04994 0 
1069 1 10.5883 -8.03284 0 
1071 1 11.7211 -8.01545 0 
1073 1 12.8531 -7.99836 0 
1075 1 13.9851 -7.98273 0 
1077 1 15.1164 -7.96777 0 
1079 1 16.2481 -7.95493 0 
1081 1 17.3786 -7.94483 0 
1083 1 18.5085 -7.93155 0 
1085 1 19.6376 -7.9229 0 
1087 1 20.7665 -7.91387 0 
1089 1 21.8962 -7.90166 0 
1091 1 23.0257 -7.89133 0 
1093 1 24.1556 -7.88174 0 
1095 2 25.2861 -7.87134 0 
1097 2 26.419 -7.86899 0 
1099 2 27.5519 -7.8668 0 
1102 2 -27.3381 -6.63684 0 
1104 2 -26.2124 -6.60035 0 
1106 2 -25.0865 -6.56307 0 
1108 1 -23.959 -6.52279 0 
1109 1 -23.3637 -7.47118 0 
1110 1 -22.8311 -6.47878 0 
1111 1 -22.2357 -7.42654 0 
1112 1 -21.7036 -6.43257 0 
1113 1 -21.107 -7.38149 0 
1114 1 -20.5751 -6.38863 0 
1115 1 -19.976 -7.3357 0 
1116 1 -19.4461 -6.34371 0 
1117 1 -18.8439 -7.28843 0 
1119 1 -17.7142 -7.2418 0 
1121 1 -16.5841 -7.19037 0 
1123 1 -15.4527 -7.14074 0 
1125 1 -14.3198 -7.08721 0 
1127 1 -13.1885 -7.02821 0 
1129 1 -12.0581 -6.96531 0 
1131 1 -10.926 -6.8981 0 
1133 1 -9.79464 -6.8295 0 
1135 1 -8.66325 -6.75968 0 
1137 1 -7.53146 -6.68851 0 
1139 1 -6.40003 -6.61567 0 
1040 1 -5.80422 -7.56661 0 
1141 1 -5.27092 -6.5447 0 
1042 1 -4.67761 -7.50004 0 
1143 1 -4.14291 -6.47619 0 
1044 1 -3.55128 -7.43833 0 
1046 1 -2.42264 -7.38458 0 
1048 1 -1.29818 -7.33089 0 
1050 1 -0.17224 -7.28636 0 
1052 1 0.955785 -7.25141 0 
1054 1 2.08073 -7.2127 0 
1056 1 3.21048 -7.18628 0 
1058 1 4.34048 -7.15767 0 
1060 1 5.47294 -7.13443 0 
1062 1 6.60466 -7.10816 0 
1064 1 7.73699 -7.08598 0 
1066 1 8.86854 -7.06838 0 
1068 1 10.0037 -7.05439 0 
1070 1 11.138 -7.03697 0 
1072 1 12.272 -7.0192 0 
1074 1 13.4037 -7.00224 0 
1076 1 14.5351 -6.98825 0 
1078 1 15.6674 -6.97434 0 
1080 1 16.8002 -6.96296 0 
1082 1 17.9313 -6.95129 0 
1084 1 19.0616 -6.93953 0 
1086 1 20.1896 -6.93145 0 
1088 1 21.3193 -6.92145 0 
1090 1 22.4498 -6.91094 0 
1092 1 23.5812 -6.90136 0 
1094 1 24.713 -6.89183 0 
1096 2 25.8451 -6.88616 0 
1098 2 26.9784 -6.88422 0 
1100 2 28.1116 -6.88241 0 
1201 2 -27.9311 -5.68349 0 
1203 2 -26.806 -5.64742 0 
1205 2 -25.6808 -5.61059 0 