ITEM: TIMESTEP
400
ITEM: NUMBER OF ATOMS
2850
ITEM: BOX BOUNDS ff ff pp
-42.092 42.092
-42.092 42.092
-0.280613 0.280613
ITEM: ATOMS id type xu yu zu 
1 2 -27.3398 -28.9988 0 
3 2 -26.2107 -28.9642 0 
5 2 -25.0816 -28.9291 0 
7 2 -23.9525 -28.8936 0 
9 2 -22.8235 -28.8577 0 
11 2 -21.6944 -28.8213 0 
13 2 -20.5655 -28.7844 0 
15 2 -19.4366 -28.7472 0 
17 2 -18.3079 -28.7095 0 
19 2 -17.1793 -28.6715 0 
21 2 -16.0508 -28.6331 0 
23 2 -14.9226 -28.5944 0 
25 2 -13.7947 -28.5554 0 
27 2 -12.667 -28.5163 0 
29 2 -11.5396 -28.477 0 
31 2 -10.4126 -28.4376 0 
33 2 -9.28592 -28.3982 0 
35 2 -8.15967 -28.3589 0 
37 2 -7.03386 -28.3198 0 
39 2 -5.90848 -28.281 0 
2 2 -26.7941 -28.0086 0 
4 2 -25.6649 -27.9736 0 
6 2 -24.5357 -27.9381 0 
8 2 -23.4065 -27.902 0 
10 2 -22.2773 -27.8656 0 
12 2 -21.1481 -27.8286 0 
14 2 -20.019 -27.7912 0 
16 2 -18.89 -27.7533 0 
18 2 -17.7611 -27.715 0 
20 2 -16.6324 -27.6763 0 
22 2 -15.5039 -27.6373 0 
24 2 -14.3755 -27.5979 0 
26 2 -13.2475 -27.5582 0 
28 2 -12.1197 -27.5183 0 
30 2 -10.9923 -27.4783 0 
32 2 -9.86522 -27.4382 0 
34 2 -8.73856 -27.3981 0 
36 2 -7.61233 -27.3581 0 
38 2 -6.48656 -27.3184 0 
40 2 -5.36126 -27.2789 0 
41 2 -4.78357 -28.2426 0 
42 2 -4.23645 -27.24 0 
43 2 -3.65912 -28.2046 0 
44 2 -3.11213 -27.2015 0 
45 2 -2.53513 -28.1673 0 
46 2 -1.98828 -27.1638 0 
47 2 -1.41159 -28.1307 0 
48 2 -0.8649 -27.1269 0 
49 2 -0.288464 -28.095 0 
51 2 0.834263 -28.0602 0 
53 2 1.95663 -28.0264 0 
55 2 3.07869 -27.9937 0 
57 2 4.20048 -27.9622 0 
59 2 5.32207 -27.9319 0 
61 2 6.4435 -27.9029 0 
63 2 7.56483 -27.8752 0 
65 2 8.68613 -27.8488 0 
67 2 9.80743 -27.8237 0 
69 2 10.9288 -27.8 0 
71 2 12.0503 -27.7775 0 
73 2 13.1719 -27.7563 0 
75 2 14.2937 -27.7363 0 
77 2 15.4157 -27.7174 0 
79 2 16.538 -27.6997 0 
81 2 17.6605 -27.683 0 
83 2 18.7832 -27.6673 0 
85 2 19.9063 -27.6526 0 
87 2 21.0296 -27.6388 0 
89 2 22.1532 -27.6258 0 
91 2 23.2771 -27.6136 0 
93 2 24.4012 -27.6022 0 
95 2 25.5256 -27.5914 0 
97 2 26.6503 -27.5812 0 
99 2 27.7752 -27.5717 0 
101 2 -27.378 -27.0533 0 
103 2 -26.2487 -27.0183 0 
102 2 -26.833 -26.0633 0 
105 2 -25.1194 -26.9828 0 
104 2 -25.7037 -26.0278 0 
107 2 -23.9901 -26.9468 0 
106 2 -24.5742 -25.9918 0 
109 2 -22.8607 -26.9102 0 
108 1 -23.4439 -25.9547 0 
111 2 -21.7314 -26.8732 0 
113 2 -20.6021 -26.8357 0 
115 2 -19.4729 -26.7977 0 
117 2 -18.3437 -26.7591 0 
119 2 -17.2147 -26.7202 0 
121 2 -16.0858 -26.6808 0 
123 2 -14.9572 -26.641 0 
125 2 -13.8287 -26.6009 0 
127 2 -12.7006 -26.5605 0 
129 2 -11.5727 -26.5198 0 
131 2 -10.4452 -26.479 0 
133 2 -9.31813 -26.4382 0 
135 2 -8.19146 -26.3973 0 
137 2 -7.06526 -26.3566 0 
139 2 -5.93954 -26.3162 0 
141 2 -4.81433 -26.2762 0 
143 2 -3.68963 -26.2366 0 
145 2 -2.56545 -26.1977 0 
147 2 -1.44177 -26.1596 0 
50 2 0.258046 -27.0909 0 
149 2 -0.318563 -26.1224 0 
52 2 1.38059 -27.056 0 
151 2 0.804196 -26.0862 0 
54 2 2.50279 -27.0222 0 
153 2 1.92656 -26.0512 0 
56 2 3.62468 -26.9896 0 
155 2 3.04857 -26.0174 0 
58 2 4.74633 -26.9582 0 
157 2 4.1703 -25.9849 0 
60 2 5.86779 -26.9282 0 
159 2 5.2918 -25.9538 0 
62 2 6.98913 -26.8996 0 
64 2 8.11041 -26.8723 0 
66 2 9.23169 -26.8465 0 
68 2 10.353 -26.822 0 
70 2 11.4745 -26.7989 0 
72 2 12.596 -26.7771 0 
74 2 13.7178 -26.7566 0 
76 2 14.8398 -26.7373 0 
78 2 15.962 -26.7192 0 
80 2 17.0845 -26.7023 0 
82 2 18.2073 -26.6863 0 
84 2 19.3304 -26.6714 0 
86 2 20.4538 -26.6575 0 
88 2 21.5774 -26.6444 0 
90 2 22.7014 -26.6321 0 
92 2 23.8256 -26.6206 0 
94 2 24.9501 -26.6098 0 
96 2 26.0749 -26.5996 0 
98 2 27.2 -26.5901 0 
100 2 28.3253 -26.5811 0 
201 2 -27.4179 -25.1085 0 
203 2 -26.2885 -25.0731 0 
205 2 -25.159 -25.0372 0 
207 2 -24.0295 -25.0007 0 
209 1 -22.8983 -24.9621 0 
110 1 -22.3139 -25.9171 0 
211 1 -21.7676 -24.9237 0 
112 1 -21.184 -25.8792 0 
213 1 -20.6371 -24.8847 0 
114 1 -20.0542 -25.8407 0 
215 1 -19.5069 -24.8447 0 
116 1 -18.9248 -25.8015 0 
217 1 -18.3773 -24.8043 0 
118 1 -17.7958 -25.7619 0 
120 1 -16.667 -25.7222 0 
122 1 -15.5383 -25.6823 0 
124 1 -14.4097 -25.6423 0 
126 1 -13.2814 -25.6021 0 
128 1 -12.1534 -25.5616 0 
130 1 -11.0256 -25.5208 0 
132 1 -9.89828 -25.4795 0 
134 1 -8.77144 -25.4376 0 
136 1 -7.64528 -25.3952 0 
138 1 -6.51982 -25.3529 0 
140 1 -5.39495 -25.3109 0 
142 1 -4.2705 -25.2697 0 
144 1 -3.14643 -25.2293 0 
146 1 -2.02281 -25.1899 0 
148 1 -0.899674 -25.1515 0 
150 1 0.223021 -25.1142 0 
152 1 1.34535 -25.0783 0 
154 1 2.46735 -25.0437 0 
156 1 3.58911 -25.0105 0 
158 1 4.71072 -24.9788 0 
160 1 5.8322 -24.9484 0 
161 2 6.41316 -25.9242 0 
162 1 6.95357 -24.9193 0 
163 2 7.53443 -25.896 0 
164 1 8.07488 -24.8917 0 
165 2 8.65568 -25.8693 0 
167 2 9.77697 -25.844 0 
166 1 9.19626 -24.8656 0 
169 2 10.8984 -25.8202 0 
168 1 10.3179 -24.8412 0 
171 2 12.0199 -25.7978 0 
170 1 11.4398 -24.8186 0 
173 2 13.1416 -25.7768 0 
172 1 12.5622 -24.7976 0 
175 2 14.2636 -25.7571 0 
177 2 15.3858 -25.7386 0 
179 2 16.5083 -25.7213 0 
181 2 17.6311 -25.7052 0 
183 2 18.7543 -25.6901 0 
185 2 19.8777 -25.6759 0 
187 2 21.0014 -25.6627 0 
189 2 22.1254 -25.6504 0 
191 2 23.2498 -25.6388 0 
193 2 24.3744 -25.628 0 
195 2 25.4993 -25.6179 0 
197 2 26.6245 -25.6084 0 
199 2 27.75 -25.5994 0 
202 2 -26.8739 -24.1187 0 
204 2 -25.7444 -24.0828 0 
206 2 -24.6148 -24.0464 0 
208 1 -23.4838 -24.0083 0 
210 1 -22.3525 -23.9691 0 
212 1 -21.2213 -23.9298 0 
214 1 -20.0904 -23.8894 0 
216 1 -18.96 -23.8482 0 
219 1 -17.2482 -24.764 0 
218 1 -17.83 -23.8072 0 
221 1 -16.1193 -24.7241 0 
220 1 -16.7006 -23.7667 0 
222 1 -15.5714 -23.7265 0 
223 1 -14.9906 -24.684 0 
224 1 -14.4423 -23.6859 0 
225 1 -13.862 -24.6438 0 
226 1 -13.3133 -23.6448 0 
227 1 -12.7336 -24.6031 0 
229 1 -11.6055 -24.562 0 
231 1 -10.4778 -24.52 0 
233 1 -9.3509 -24.4771 0 
235 1 -8.2249 -24.4335 0 
237 1 -7.09975 -24.3897 0 
239 1 -5.97518 -24.3464 0 
241 1 -4.85096 -24.3041 0 
243 1 -3.72709 -24.2629 0 
245 1 -2.60365 -24.2226 0 
247 1 -1.48059 -24.1831 0 
249 1 -0.357856 -24.1445 0 
251 1 0.764479 -24.1071 0 
253 1 1.88639 -24.0709 0 
255 1 3.00804 -24.0362 0 
257 1 4.12962 -24.0031 0 
259 1 5.25119 -23.9718 0 
261 1 6.3728 -23.942 0 
263 1 7.49448 -23.9139 0 
265 1 8.6162 -23.8873 0 
267 1 9.73798 -23.8625 0 
269 1 10.86 -23.8395 0 
271 1 11.9823 -23.8182 0 
273 1 13.1052 -23.7985 0 
174 1 13.6849 -24.778 0 
275 1 14.2284 -23.7801 0 
176 1 14.808 -24.7597 0 
277 1 15.352 -23.7627 0 
178 1 15.9313 -24.7424 0 
279 1 16.4757 -23.7459 0 
180 1 17.0546 -24.7258 0 
281 1 17.5994 -23.7297 0 
182 1 18.1778 -24.7099 0 
283 1 18.7232 -23.7139 0 
184 1 19.3011 -24.6947 0 
285 1 19.847 -23.6989 0 
186 1 20.4244 -24.6805 0 
287 1 20.971 -23.6853 0 
188 1 21.5482 -24.6676 0 
289 1 22.0955 -23.6734 0 
190 1 22.6726 -24.6561 0 
291 1 23.2207 -23.6629 0 
192 1 23.7977 -24.6455 0 
293 1 24.3465 -23.6532 0 
194 1 24.9231 -24.6357 0 
295 2 25.4729 -23.6443 0 
196 2 26.0488 -24.6264 0 
198 2 27.1745 -24.6176 0 
200 2 28.3003 -24.6093 0 
301 2 -27.4598 -23.1644 0 
303 2 -26.3303 -23.1287 0 
305 2 -25.2007 -23.0924 0 
307 2 -24.071 -23.0555 0 
309 1 -22.9386 -23.0157 0 
311 1 -21.8065 -22.9758 0 
313 1 -20.675 -22.9352 0 
315 1 -19.5439 -22.8938 0 
317 1 -18.4132 -22.852 0 
319 1 -17.2829 -22.8106 0 
321 1 -16.1529 -22.7696 0 
323 1 -15.023 -22.7284 0 
325 1 -13.8933 -22.6865 0 
327 1 -12.7641 -22.6437 0 
228 1 -12.1847 -23.6029 0 
329 1 -11.6361 -22.5998 0 
230 1 -11.0568 -23.56 0 
331 1 -10.5095 -22.555 0 
232 1 -9.93001 -23.516 0 
333 1 -9.38412 -22.5096 0 
234 1 -8.80432 -23.4713 0 
236 1 -7.67946 -23.4266 0 
238 1 -6.55501 -23.3827 0 
240 1 -5.43081 -23.3399 0 
242 1 -4.30696 -23.2979 0 
244 1 -3.18354 -23.2566 0 
246 1 -2.06045 -23.2161 0 
248 1 -0.93769 -23.1763 0 
250 1 0.184577 -23.1373 0 
252 1 1.30641 -23.0994 0 
254 1 2.42804 -23.0631 0 
256 1 3.54955 -23.0285 0 
258 1 4.67094 -22.9956 0 
260 1 5.79238 -22.9647 0 
262 1 6.91407 -22.9358 0 
264 1 8.036 -22.9087 0 
266 1 9.15802 -22.8835 0 
268 1 10.28 -22.8601 0 
270 1 11.4021 -22.8384 0 
272 1 12.5244 -22.8184 0 
274 1 13.6473 -22.7997 0 
276 1 14.7707 -22.782 0 
278 1 15.8948 -22.765 0 
280 1 17.0192 -22.7487 0 
282 1 18.1439 -22.7329 0 
284 1 19.2686 -22.7178 0 
286 1 20.3933 -22.7037 0 
288 1 21.5182 -22.6913 0 
290 1 22.6434 -22.6805 0 
292 1 23.7692 -22.6706 0 
294 1 24.8957 -22.6615 0 
297 2 26.5987 -23.6355 0 
296 2 26.0228 -22.6533 0 
299 2 27.7248 -23.6273 0 
298 2 27.149 -22.6452 0 
300 2 28.2755 -22.6376 0 
302 2 -26.9167 -22.1747 0 
304 2 -25.7871 -22.1385 0 
306 2 -24.6574 -22.1018 0 
308 1 -23.5254 -22.0629 0 
310 1 -22.393 -22.0228 0 
312 1 -21.2608 -21.982 0 
314 1 -20.1292 -21.9405 0 
316 1 -18.9978 -21.8984 0 
318 1 -17.8666 -21.8558 0 
320 1 -16.7355 -21.8134 0 
322 1 -15.6047 -21.771 0 
324 1 -14.4744 -21.7283 0 
326 1 -13.345 -21.6847 0 
328 1 -12.2169 -21.64 0 
330 1 -11.0904 -21.5945 0 
332 1 -9.96511 -21.5488 0 
334 1 -8.84016 -21.5035 0 
335 1 -8.25942 -22.4645 0 
336 1 -7.71517 -21.4587 0 
337 1 -7.13487 -22.4203 0 
338 1 -6.59023 -21.4141 0 
339 1 -6.01044 -22.3767 0 
340 1 -5.4655 -21.3696 0 
341 1 -4.8863 -22.3337 0 
342 1 -4.34101 -21.3254 0 
343 1 -3.76251 -22.2911 0 
345 1 -2.63907 -22.2491 0 
347 1 -1.51627 -22.2076 0 
349 1 -0.394216 -22.1669 0 
351 1 0.727511 -22.1278 0 
353 1 1.84923 -22.0907 0 
355 1 2.97079 -22.0551 0 
357 1 4.09208 -22.021 0 
359 1 5.2133 -21.9889 0 
361 1 6.33459 -21.9587 0 
363 1 7.4561 -21.9305 0 
365 1 8.57794 -21.9042 0 
367 1 9.69996 -21.8798 0 
369 1 10.8219 -21.8575 0 
371 1 11.9438 -21.837 0 
373 1 13.066 -21.8182 0 
375 1 14.1889 -21.8005 0 
377 1 15.3129 -21.7835 0 
379 1 16.4377 -21.7671 0 
381 1 17.5632 -21.7514 0 
383 1 18.689 -21.7363 0 
385 1 19.8147 -21.7222 0 
387 1 20.9404 -21.7096 0 
389 1 22.0661 -21.6986 0 
391 1 23.1922 -21.6885 0 
393 1 24.3189 -21.679 0 
395 2 25.4466 -21.6709 0 
397 2 26.573 -21.6629 0 
399 2 27.6998 -21.6554 0 
401 2 -27.5037 -21.2208 0 
403 2 -26.3741 -21.1849 0 
402 2 -26.9617 -20.2313 0 
405 2 -25.2445 -21.1483 0 
404 2 -25.8321 -20.1949 0 
407 2 -24.1147 -21.111 0 
409 1 -22.9812 -21.0706 0 
411 1 -21.8486 -21.03 0 
413 1 -20.7165 -20.9884 0 
415 1 -19.5844 -20.946 0 
417 1 -18.4522 -20.9025 0 
419 1 -17.3199 -20.8584 0 
421 1 -16.1882 -20.8146 0 
423 1 -15.0574 -20.7708 0 
425 1 -13.9279 -20.7265 0 
427 1 -12.7999 -20.6813 0 
429 1 -11.6733 -20.6352 0 
431 1 -10.5474 -20.589 0 
433 1 -9.42164 -20.5432 0 
435 1 -8.29585 -20.4975 0 
437 1 -7.17015 -20.4517 0 
439 1 -6.04463 -20.4059 0 
441 1 -4.91956 -20.3604 0 
344 1 -3.21712 -21.2816 0 
443 1 -3.79558 -20.315 0 
346 1 -2.0943 -21.2383 0 
445 1 -2.6728 -20.27 0 
348 1 -0.972301 -21.1961 0 
447 1 -1.55043 -20.2266 0 
350 1 0.149551 -21.1558 0 
449 1 -0.428051 -20.1849 0 
352 1 1.27131 -21.1175 0 
354 1 2.39273 -21.0807 0 
356 1 3.51397 -21.0458 0 
358 1 4.63526 -21.013 0 
360 1 5.75642 -20.9821 0 
362 1 6.87745 -20.9529 0 
364 1 7.99866 -20.9255 0 
366 1 9.12027 -20.8998 0 
368 1 10.2422 -20.8759 0 
370 1 11.3642 -20.8542 0 
372 1 12.4861 -20.8349 0 
374 1 13.6084 -20.8175 0 
376 1 14.7316 -20.801 0 
378 1 15.8561 -20.7851 0 
380 1 16.9818 -20.7695 0 
382 1 18.1081 -20.7544 0 
384 1 19.2348 -20.7403 0 
386 1 20.3616 -20.7277 0 
388 1 21.4884 -20.7167 0 
390 1 22.6152 -20.7067 0 
392 1 23.742 -20.697 0 
394 1 24.8694 -20.6885 0 
396 2 25.9969 -20.6804 0 
398 2 27.1238 -20.673 0 
400 2 28.251 -20.6661 0 
501 2 -27.5497 -19.2779 0 
503 2 -26.4202 -19.2417 0 
505 2 -25.2906 -19.2049 0 
406 2 -24.7023 -20.1579 0 
507 2 -24.1608 -19.1673 0 
408 1 -23.5701 -20.1189 0 
509 1 -23.0283 -19.1271 0 
410 1 -22.4377 -20.0784 0 
511 1 -21.8958 -19.0859 0 
412 1 -21.3055 -20.037 0 
414 1 -20.1728 -19.9943 0 
513 1 -20.7627 -19.0431 0 
416 1 -19.0398 -19.9502 0 
418 1 -17.9068 -19.9051 0 
420 1 -16.7743 -19.8598 0 
422 1 -15.643 -19.8148 0 
424 1 -14.5133 -19.7697 0 
426 1 -13.3852 -19.7238 0 
428 1 -12.258 -19.6771 0 
430 1 -11.131 -19.6301 0 
432 1 -10.0039 -19.5833 0 
434 1 -8.87689 -19.5366 0 
436 1 -7.75022 -19.49 0 
438 1 -6.62403 -19.4435 0 
440 1 -5.49887 -19.397 0 
442 1 -4.37513 -19.3503 0 
444 1 -3.25213 -19.304 0 
446 1 -2.12898 -19.2592 0 
448 1 -1.00607 -19.2155 0 
450 1 0.11587 -19.1724 0 
451 1 0.693809 -20.1445 0 
452 1 1.23707 -19.1308 0 
453 1 1.81496 -20.1054 0 
454 1 2.35791 -19.0918 0 
455 1 2.93592 -20.0688 0 
456 1 3.47837 -19.0555 0 
457 1 4.05697 -20.0348 0 
458 1 4.59884 -19.022 0 
459 1 5.17804 -20.003 0 
461 1 6.29916 -19.9734 0 
463 1 7.42027 -19.946 0 
465 1 8.54151 -19.9201 0 
467 1 9.66327 -19.8954 0 
469 1 10.7856 -19.872 0 
471 1 11.908 -19.8508 0 
473 1 13.0303 -19.8324 0 
475 1 14.1528 -19.8164 0 
477 1 15.2763 -19.8015 0 
479 1 16.4011 -19.7869 0 
481 1 17.5273 -19.7723 0 
483 1 18.6544 -19.7582 0 
485 1 19.782 -19.7454 0 
487 1 20.91 -19.7344 0 
489 1 22.0381 -19.7247 0 
491 1 23.1658 -19.7152 0 
493 1 24.2932 -19.7065 0 
495 2 25.4205 -19.6978 0 
497 2 26.5477 -19.6905 0 
499 2 27.6751 -19.6838 0 
502 2 -27.0088 -18.2886 0 
504 2 -25.8793 -18.252 0 
506 2 -24.7497 -18.2147 0 
508 1 -23.6191 -18.1763 0 
510 1 -22.4866 -18.1347 0 
512 1 -21.3533 -18.0919 0 
514 1 -20.2196 -18.0476 0 
515 1 -19.6292 -18.9987 0 
516 1 -19.0861 -18.0022 0 
517 1 -18.4957 -18.9531 0 
518 1 -17.9534 -17.9558 0 
519 1 -17.3629 -18.907 0 
520 1 -16.8216 -17.9086 0 
521 1 -16.2313 -18.8609 0 
522 1 -15.6909 -17.8607 0 
523 1 -15.1012 -18.8144 0 
525 1 -13.9723 -18.7673 0 
527 1 -12.8441 -18.7197 0 
529 1 -11.7157 -18.6719 0 
531 1 -10.5871 -18.6243 0 
533 1 -9.4588 -18.5769 0 
535 1 -8.33117 -18.5298 0 
537 1 -7.20466 -18.4827 0 
539 1 -6.07967 -18.435 0 
541 1 -4.95578 -18.3868 0 
543 1 -3.8319 -18.3389 0 
545 1 -2.70799 -18.292 0 
547 1 -1.58487 -18.2456 0 
549 1 -0.462825 -18.1999 0 
551 1 0.658457 -18.1562 0 
553 1 1.77904 -18.1149 0 
555 1 2.89908 -18.0763 0 
557 1 4.01919 -18.0412 0 
559 1 5.13981 -18.0093 0 
460 1 5.71991 -18.9914 0 
561 1 6.26108 -17.9797 0 
462 1 6.8414 -18.9634 0 
563 1 7.38301 -17.9526 0 
464 1 7.96288 -18.9378 0 
565 1 8.5052 -17.9288 0 
466 1 9.08458 -18.9141 0 
567 1 9.62745 -17.9075 0 
468 1 10.207 -18.8912 0 
569 1 10.7506 -17.8871 0 
470 1 11.3302 -18.8687 0 
472 1 12.4536 -18.8478 0 
474 1 13.5766 -18.8301 0 
476 1 14.6995 -18.8153 0 
478 1 15.8232 -18.8021 0 
480 1 16.9482 -18.789 0 
482 1 18.0748 -18.7758 0 
484 1 19.2024 -18.7632 0 
486 1 20.331 -18.7519 0 
488 1 21.46 -18.7422 0 
490 1 22.5888 -18.733 0 
492 1 23.7172 -18.7245 0 
494 1 24.8448 -18.7163 0 
496 2 25.9714 -18.7078 0 
498 2 27.0991 -18.7012 0 
500 2 28.2271 -18.6951 0 
601 2 -27.5979 -17.3354 0 
603 2 -26.4686 -17.2992 0 
605 2 -25.3391 -17.2621 0 
607 2 -24.2094 -17.2244 0 
609 1 -23.0778 -17.184 0 
611 1 -21.9445 -17.1407 0 
613 1 -20.811 -17.0968 0 
615 1 -19.6777 -17.0519 0 
617 1 -18.5451 -17.0056 0 
619 1 -17.4132 -16.9576 0 
621 1 -16.2818 -16.9082 0 
524 1 -14.5609 -17.8121 0 
623 1 -15.1509 -16.8583 0 
526 1 -13.4313 -17.7634 0 
625 1 -14.0201 -16.8088 0 
528 1 -12.3016 -17.7151 0 
627 1 -12.8895 -16.7602 0 
530 1 -11.1719 -17.6672 0 
629 1 -11.7592 -16.7124 0 
532 1 -10.0426 -17.6196 0 
534 1 -8.91426 -17.5718 0 
536 1 -7.78741 -17.5233 0 
538 1 -6.66187 -17.4737 0 
540 1 -5.53668 -17.4234 0 
542 1 -4.41152 -17.3734 0 
544 1 -3.28691 -17.3238 0 
546 1 -2.16344 -17.2746 0 
548 1 -1.0412 -17.2264 0 
550 1 0.0798311 -17.1799 0 
552 1 1.19967 -17.136 0 
554 1 2.31914 -17.0958 0 
556 1 3.43914 -17.0596 0 
558 1 4.55952 -17.0267 0 
560 1 5.68019 -16.9965 0 
562 1 6.80192 -16.9686 0 
564 1 7.92471 -16.9425 0 
566 1 9.04762 -16.9194 0 
568 1 10.1704 -16.9003 0 
571 1 11.875 -17.8661 0 
570 1 11.2939 -16.8827 0 
573 1 12.9998 -17.8458 0 
572 1 12.4192 -16.8641 0 
575 1 14.1241 -17.8285 0 
574 1 13.5456 -16.845 0 
577 1 15.2479 -17.8146 0 
576 1 14.6716 -16.8282 0 
579 1 16.3719 -17.803 0 
578 1 15.7967 -16.8152 0 
581 1 17.4971 -17.7917 0 
580 1 16.9216 -16.8048 0 
583 1 18.6239 -17.7803 0 
582 1 18.0472 -16.7953 0 
585 1 19.7522 -17.7694 0 
584 1 19.1744 -16.7859 0 
587 1 20.8815 -17.7596 0 
586 1 20.3033 -16.7768 0 
589 1 22.011 -17.7504 0 
588 1 21.4329 -16.7677 0 
591 1 23.1401 -17.7419 0 
590 1 22.5625 -16.759 0 
593 1 24.2683 -17.7344 0 
592 1 23.6917 -16.7518 0 
595 2 25.3948 -17.725 0 
594 1 24.8196 -16.7436 0 
596 2 25.9465 -16.7357 0 
597 2 26.5229 -17.7186 0 
598 2 27.0751 -16.7299 0 
599 2 27.6512 -17.7126 0 
600 2 28.2039 -16.7246 0 
602 2 -27.0583 -16.3463 0 
604 2 -25.929 -16.3096 0 
606 2 -24.7995 -16.2721 0 
608 1 -23.6688 -16.2328 0 
610 1 -22.5363 -16.1905 0 
612 1 -21.403 -16.1464 0 
614 1 -20.2702 -16.1021 0 
616 1 -19.1378 -16.0562 0 
618 1 -18.0056 -16.0078 0 
620 1 -16.8738 -15.9573 0 
622 1 -15.7422 -15.9064 0 
624 1 -14.611 -15.8564 0 
626 1 -13.4801 -15.8076 0 
628 1 -12.3495 -15.7592 0 
630 1 -11.2191 -15.71 0 
631 1 -10.6294 -16.6643 0 
632 1 -10.089 -15.6593 0 
633 1 -9.50045 -16.6153 0 
634 1 -8.95909 -15.6067 0 
635 1 -8.37251 -16.5647 0 
636 1 -7.82987 -15.5531 0 
637 1 -7.24511 -16.5128 0 
639 1 -6.11805 -16.4605 0 
641 1 -4.99144 -16.4084 0 
643 1 -3.86567 -16.3567 0 
645 1 -2.74109 -16.3055 0 
647 1 -1.61819 -16.2545 0 
649 1 -0.497576 -16.2044 0 
651 1 0.621535 -16.157 0 
653 1 1.7407 -16.1142 0 
655 1 2.86024 -16.0763 0 
657 1 3.9798 -16.0423 0 
659 1 5.09996 -16.0118 0 
661 1 6.22132 -15.9847 0 
663 1 7.34383 -15.9587 0 
665 1 8.46751 -15.9333 0 
667 1 9.59155 -15.9108 0 
669 1 10.7149 -15.8929 0 
671 1 11.8387 -15.878 0 
673 1 12.9642 -15.8623 0 
675 1 14.0914 -15.8452 0 
677 1 15.2187 -15.8296 0 
679 1 16.3452 -15.8175 0 
681 1 17.4711 -15.8083 0 
683 1 18.5976 -15.8004 0 
685 1 19.7257 -15.7928 0 
687 1 20.8551 -15.7846 0 
689 1 21.9846 -15.7762 0 
691 1 23.1138 -15.7688 0 
693 1 24.2423 -15.7615 0 
695 2 25.3699 -15.7527 0 
697 2 26.4989 -15.7471 0 
699 2 27.6281 -15.742 0 
701 2 -27.6483 -15.3934 0 
703 2 -26.5193 -15.357 0 
705 2 -25.3901 -15.3199 0 
707 2 -24.2607 -15.282 0 
709 1 -23.1278 -15.2404 0 
711 1 -21.9953 -15.1968 0 
713 1 -20.8635 -15.1526 0 
715 1 -19.7314 -15.1071 0 
717 1 -18.5989 -15.0587 0 
719 1 -17.4667 -15.008 0 
721 1 -16.3352 -14.9567 0 
723 1 -15.2043 -14.9061 0 
725 1 -14.0734 -14.8566 0 
727 1 -12.9419 -14.807 0 
729 1 -11.8098 -14.7564 0 
731 1 -10.6777 -14.704 0 
733 1 -9.54656 -14.6503 0 
735 1 -8.41641 -14.5957 0 
638 1 -6.70128 -15.4994 0 
737 1 -7.28693 -14.5414 0 
640 1 -5.57335 -15.4461 0 
739 1 -6.15808 -14.4875 0 
642 1 -4.44615 -15.3933 0 
741 1 -5.03018 -14.433 0 
644 1 -3.32024 -15.34 0 
743 1 -3.90433 -14.3775 0 
646 1 -2.19687 -15.286 0 
648 1 -1.07624 -15.232 0 
650 1 0.0432366 -15.1811 0 
652 1 1.16293 -15.1357 0 
654 1 2.28233 -15.0943 0 
656 1 3.40103 -15.0566 0 
658 1 4.52027 -15.0246 0 
660 1 5.64067 -14.9977 0 
662 1 6.76224 -14.9734 0 
664 1 7.88583 -14.9501 0 
666 1 9.0112 -14.9262 0 
668 1 10.1368 -14.9037 0 
670 1 11.2617 -14.8866 0 
672 1 12.3861 -14.8735 0 
674 1 13.5119 -14.8604 0 
676 1 14.639 -14.8458 0 
678 1 15.7666 -14.8323 0 
680 1 16.8937 -14.8217 0 
682 1 18.0206 -14.8138 0 
684 1 19.1484 -14.8073 0 
686 1 20.2774 -14.8005 0 
688 1 21.4071 -14.7929 0 
690 1 22.5365 -14.7857 0 
692 1 23.6652 -14.7789 0 
694 1 24.7932 -14.7704 0 
696 2 25.9226 -14.7642 0 
698 2 27.0521 -14.7592 0 
700 2 28.1818 -14.7547 0 
702 2 -27.11 -14.4044 0 
801 2 -27.7009 -13.4516 0 
704 2 -25.9811 -14.3676 0 
803 2 -26.5724 -13.4152 0 
706 2 -24.852 -14.3301 0 
805 2 -25.4437 -13.3781 0 
708 1 -23.7192 -14.2894 0 
807 2 -24.3146 -13.3401 0 
710 1 -22.5883 -14.2476 0 
809 1 -23.1818 -13.2974 0 
712 1 -21.4574 -14.2036 0 
714 1 -20.3259 -14.1582 0 
716 1 -19.1931 -14.1102 0 
718 1 -18.0607 -14.0597 0 
720 1 -16.93 -14.0086 0 
722 1 -15.7996 -13.9576 0 
724 1 -14.6679 -13.9068 0 
726 1 -13.5344 -13.8559 0 
728 1 -12.4001 -13.8039 0 
730 1 -11.2669 -13.7505 0 
732 1 -10.1354 -13.6959 0 
734 1 -9.0047 -13.6409 0 
736 1 -7.87449 -13.586 0 
738 1 -6.74523 -13.5302 0 
740 1 -5.61778 -13.474 0 
742 1 -4.49245 -13.4159 0 
744 1 -3.37102 -13.3549 0 
745 1 -2.7814 -14.3197 0 
746 1 -2.25149 -13.2939 0 
747 1 -1.66118 -14.2615 0 
748 1 -1.13057 -13.238 0 
749 1 -0.540995 -14.2079 0 
751 1 0.579823 -14.1596 0 
753 1 1.69946 -14.1144 0 
755 1 2.81864 -14.073 0 
757 1 3.93842 -14.0376 0 
759 1 5.0579 -14.0078 0 
761 1 6.1778 -13.9834 0 
763 1 7.29993 -13.9637 0 
765 1 8.42466 -13.9436 0 
767 1 9.55218 -13.9214 0 
769 1 10.6806 -13.8995 0 
771 1 11.8079 -13.8824 0 
773 1 12.9344 -13.8703 0 
775 1 14.0613 -13.8588 0 
777 1 15.1888 -13.8468 0 
779 1 16.3162 -13.8358 0 
781 1 17.4434 -13.8275 0 
783 1 18.571 -13.8212 0 
785 1 19.6996 -13.8156 0 
787 1 20.8291 -13.809 0 
789 1 21.9586 -13.8022 0 
791 1 23.088 -13.7961 0 
793 1 24.2166 -13.7881 0 
795 2 25.3462 -13.7811 0 
797 2 26.4761 -13.7764 0 
799 2 27.6062 -13.772 0 
802 2 -27.164 -12.4626 0 
804 2 -26.0357 -12.4259 0 
806 2 -24.9071 -12.3884 0 
808 1 -23.775 -12.3476 0 
810 1 -22.645 -12.3057 0 
811 1 -22.0515 -13.2553 0 
812 1 -21.5152 -12.2619 0 
813 1 -20.9204 -13.2098 0 
814 1 -20.3839 -12.2143 0 
815 1 -19.7881 -13.1621 0 
816 1 -19.2529 -12.1654 0 
817 1 -18.6562 -13.1124 0 
818 1 -18.1228 -12.1156 0 
819 1 -17.526 -13.0616 0 
821 1 -16.3955 -13.0106 0 
823 1 -15.2619 -12.9588 0 
825 1 -14.1266 -12.9067 0 
827 1 -12.9918 -12.8537 0 
829 1 -11.8591 -12.7996 0 
831 1 -10.727 -12.7442 0 
833 1 -9.59515 -12.6888 0 
835 1 -8.46431 -12.6318 0 
837 1 -7.33544 -12.5744 0 
839 1 -6.20744 -12.5164 0 
841 1 -5.0825 -12.4562 0 
843 1 -3.96168 -12.392 0 
845 1 -2.84112 -12.3294 0 
847 1 -1.71958 -12.2722 0 
750 1 -0.00983726 -13.1856 0 
849 1 -0.599654 -12.216 0 
851 1 0.518799 -12.1625 0 
752 1 1.10905 -13.1353 0 
853 1 1.63878 -12.1165 0 
754 1 2.22855 -13.0923 0 
855 1 2.75877 -12.0765 0 
756 1 3.34982 -13.0551 0 
758 1 4.47094 -13.0204 0 
760 1 5.59166 -12.9919 0 
762 1 6.71249 -12.9712 0 
764 1 7.83445 -12.9548 0 
766 1 8.96015 -12.9391 0 
768 1 10.0895 -12.9192 0 
770 1 11.2207 -12.898 0 
772 1 12.3511 -12.8812 0 
774 1 13.4805 -12.8694 0 
776 1 14.6096 -12.859 0 
778 1 15.7384 -12.8487 0 
780 1 16.8668 -12.8403 0 
782 1 17.9947 -12.8345 0 
784 1 19.1229 -12.83 0 
786 1 20.2517 -12.8246 0 
788 1 21.3807 -12.8183 0 
790 1 22.5102 -12.8127 0 
792 1 23.6394 -12.8057 0 
794 1 24.769 -12.7983 0 
796 2 25.9 -12.7934 0 
798 2 27.0306 -12.7893 0 
800 2 28.1612 -12.7854 0 
901 2 -27.7557 -11.5099 0 
903 2 -26.6279 -11.4735 0 
905 2 -25.4997 -11.4364 0 
907 2 -24.3713 -11.3985 0 
909 1 -23.2403 -11.3557 0 
911 1 -22.1105 -11.3134 0 
913 1 -20.9799 -11.267 0 
915 1 -19.8497 -11.2185 0 
917 1 -18.72 -11.1701 0 
820 1 -16.9912 -12.0648 0 
919 1 -17.588 -11.1201 0 
822 1 -15.8566 -12.0128 0 
921 1 -16.4535 -11.068 0 
824 1 -14.7213 -11.9595 0 
923 1 -15.3191 -11.0147 0 
826 1 -13.5877 -11.9061 0 
925 1 -14.1853 -10.9611 0 
828 1 -12.4543 -11.8513 0 
927 1 -13.05 -10.9059 0 
830 1 -11.3206 -11.7956 0 
832 1 -10.1878 -11.7379 0 
834 1 -9.05752 -11.6793 0 
836 1 -7.92786 -11.6208 0 
838 1 -6.79871 -11.5622 0 
840 1 -5.67348 -11.4991 0 
842 1 -4.551 -11.4323 0 
844 1 -3.42859 -11.3682 0 
846 1 -2.30677 -11.3071 0 
848 1 -1.18756 -11.2474 0 
850 1 -0.0683138 -11.1931 0 
852 1 1.05336 -11.1458 0 
854 1 2.174 -11.0997 0 
857 1 3.87959 -12.0399 0 
856 1 3.29304 -11.0604 0 
859 1 5.0037 -12.0076 0 
858 1 4.41391 -11.0299 0 
861 1 6.12716 -11.9797 0 
860 1 5.53805 -10.999 0 
863 1 7.24897 -11.96 0 
862 1 6.66463 -10.9717 0 
865 1 8.37186 -11.9482 0 
864 1 7.78923 -10.9529 0 
867 1 9.49771 -11.9358 0 
869 1 10.6283 -11.919 0 
871 1 11.7609 -11.899 0 
873 1 12.8934 -11.8828 0 
875 1 14.025 -11.8713 0 
877 1 15.1561 -11.8615 0 
879 1 16.2867 -11.8527 0 
881 1 17.4169 -11.8466 0 
883 1 18.5465 -11.8429 0 
885 1 19.6756 -11.8395 0 
887 1 20.804 -11.8343 0 
889 1 21.9328 -11.8289 0 
891 1 23.0627 -11.823 0 
893 1 24.1929 -11.8155 0 
895 2 25.3239 -11.8103 0 
897 2 26.4549 -11.8064 0 
899 2 27.586 -11.8028 0 
902 2 -27.2202 -10.5209 0 
904 2 -26.0925 -10.4842 0 
906 2 -24.9646 -10.4468 0 
908 1 -23.8355 -10.4069 0 
910 1 -22.7054 -10.3637 0 
912 1 -21.5756 -10.3194 0 
914 1 -20.4462 -10.2719 0 
916 1 -19.3173 -10.2242 0 
918 1 -18.1864 -10.1757 0 
920 1 -17.0521 -10.1242 0 
922 1 -15.9172 -10.0716 0 
924 1 -14.7827 -10.0181 0 
926 1 -13.6473 -9.96225 0 
928 1 -12.5135 -9.90243 0 
929 1 -11.9152 -10.8485 0 
930 1 -11.3825 -9.84279 0 
931 1 -10.7832 -10.7889 0 
932 1 -10.2496 -9.78345 0 
933 1 -9.65277 -10.7295 0 
935 1 -8.52101 -10.6711 0 
937 1 -7.3907 -10.611 0 
939 1 -6.26393 -10.5448 0 
941 1 -5.13947 -10.4767 0 
943 1 -4.01583 -10.4101 0 
945 1 -2.89382 -10.3456 0 
947 1 -1.77361 -10.282 0 
949 1 -0.652755 -10.2228 0 
951 1 0.468773 -10.1698 0 
953 1 1.58906 -10.121 0 
955 1 2.71112 -10.0786 0 
957 1 3.8321 -10.0445 0 
959 1 4.95082 -10.0172 0 
961 1 6.07486 -9.99374 0 
963 1 7.20207 -9.96762 0 
965 1 8.32891 -9.94894 0 
866 1 8.91291 -10.9427 0 
967 1 9.4547 -9.9405 0 
868 1 10.0401 -10.9345 0 
969 1 10.5832 -9.93417 0 
870 1 11.1714 -10.9196 0 
971 1 11.7165 -9.92222 0 
872 1 12.3053 -10.9018 0 
973 1 12.8517 -9.90535 0 
874 1 13.4386 -10.8863 0 
975 1 13.9865 -9.89153 0 
876 1 14.5715 -10.8755 0 
977 1 15.1202 -9.88117 0 
878 1 15.7035 -10.8661 0 
979 1 16.2533 -9.87291 0 
880 1 16.8354 -10.8589 0 
981 1 17.3864 -9.86705 0 
882 1 17.9673 -10.8547 0 
983 1 18.5193 -9.86444 0 
884 1 19.0984 -10.8526 0 
985 1 19.6508 -9.86301 0 
886 1 20.228 -10.8495 0 
987 1 20.7806 -9.86045 0 
888 1 21.3564 -10.845 0 
890 1 22.4853 -10.8399 0 
989 1 21.9097 -9.85662 0 
892 1 23.6158 -10.8329 0 
991 1 23.0395 -9.85019 0 
894 1 24.7479 -10.8276 0 
993 1 24.1713 -9.84446 0 
896 2 25.8793 -10.8234 0 
995 2 25.3037 -9.84035 0 
898 2 27.0108 -10.8201 0 
997 2 26.4357 -9.83726 0 
900 2 28.1423 -10.817 0 
999 2 27.5677 -9.8344 0 
1001 2 -27.8125 -9.56805 0 
1003 2 -26.6854 -9.5318 0 
1005 2 -25.5581 -9.49477 0 
1007 2 -24.4305 -9.45693 0 
1009 1 -23.3021 -9.41465 0 
1011 1 -22.1724 -9.37065 0 
1013 1 -21.043 -9.32514 0 
1015 1 -19.9146 -9.27814 0 
1017 1 -18.7849 -9.2307 0 
1019 1 -17.6513 -9.1811 0 
1021 1 -16.516 -9.12948 0 
1023 1 -15.3823 -9.07634 0 
1025 1 -14.2491 -9.01924 0 
1027 1 -13.1159 -8.95897 0 
1029 1 -11.9829 -8.89945 0 
1031 1 -10.8472 -8.84147 0 
934 1 -9.11563 -9.72531 0 
1033 1 -9.71115 -8.78083 0 
936 1 -7.98327 -9.6619 0 
1035 1 -8.57763 -8.71646 0 
938 1 -6.85487 -9.59463 0 
1037 1 -7.4473 -8.6477 0 
940 1 -5.7285 -9.52478 0 
1039 1 -6.31965 -8.57671 0 
942 1 -4.60381 -9.45559 0 
944 1 -3.48009 -9.38686 0 
946 1 -2.35779 -9.31822 0 
948 1 -1.23577 -9.25197 0 
950 1 -0.114305 -9.19277 0 
952 1 1.00545 -9.138 0 
954 1 2.12617 -9.09418 0 
956 1 3.24933 -9.05627 0 
958 1 4.37273 -9.02446 0 
960 1 5.49434 -9.00513 0 
962 1 6.6165 -8.98573 0 
964 1 7.74471 -8.9661 0 
966 1 8.87126 -8.94775 0 
968 1 9.99799 -8.94057 0 
970 1 11.1279 -8.93613 0 
972 1 12.2627 -8.9261 0 
974 1 13.3991 -8.91081 0 
976 1 14.5355 -8.8979 0 
978 1 15.6703 -8.88833 0 
980 1 16.8047 -8.88148 0 
982 1 17.9392 -8.87694 0 
984 1 19.0725 -8.87525 0 
986 1 20.2038 -8.87415 0 
988 1 21.3341 -8.87253 0 
990 1 22.4641 -8.86795 0 
992 1 23.5953 -8.86154 0 
994 1 24.7284 -8.85751 0 
996 2 25.8608 -8.85435 0 
998 2 26.9933 -8.85174 0 
1000 2 28.1257 -8.84931 0 
1002 2 -27.2783 -8.57905 0 
1101 2 -27.8711 -7.62598 0 
1004 2 -26.1516 -8.54247 0 
1103 2 -26.7449 -7.58983 0 
1006 2 -25.0246 -8.50509 0 
1105 2 -25.6186 -7.5529 0 
1008 1 -23.8981 -8.46551 0 
1107 2 -24.492 -7.51516 0 
1010 1 -22.7691 -8.42168 0 
1012 1 -21.6394 -8.37755 0 
1014 1 -20.5113 -8.33173 0 
1016 1 -19.3832 -8.28494 0 
1018 1 -18.2514 -8.23737 0 
1020 1 -17.117 -8.18732 0 
1022 1 -15.9844 -8.13438 0 
1024 1 -14.8522 -8.07726 0 
1026 1 -13.7176 -8.01801 0 
1028 1 -12.5826 -7.95869 0 
1030 1 -11.4475 -7.90069 0 
1032 1 -10.311 -7.83864 0 
1034 1 -9.17718 -7.77468 0 
1036 1 -8.04536 -7.7046 0 
1038 1 -6.91606 -7.63208 0 
1041 1 -5.19181 -8.50429 0 
1040 1 -5.78425 -7.55681 0 
1043 1 -4.06434 -8.43067 0 
1042 1 -4.65338 -7.47721 0 
1045 1 -2.93988 -8.35335 0 
1044 1 -3.52618 -7.39247 0 
1047 1 -1.81866 -8.27949 0 
1049 1 -0.698094 -8.21669 0 
1051 1 0.420749 -8.15909 0 
1053 1 1.54262 -8.11203 0 
1055 1 2.66408 -8.07125 0 
1057 1 3.78747 -8.03716 0 
1059 1 4.91299 -8.00982 0 
1061 1 6.03704 -7.99114 0 
1063 1 7.16284 -7.97986 0 
1065 1 8.29204 -7.96271 0 
1067 1 9.4206 -7.94934 0 
1069 1 10.5458 -7.94196 0 
1071 1 11.6766 -7.9404 0 
1073 1 12.8115 -7.93091 0 
1075 1 13.9496 -7.91822 0 
1077 1 15.0865 -7.90529 0 
1079 1 16.2226 -7.89726 0 
1081 1 17.3583 -7.89134 0 
1083 1 18.4934 -7.88824 0 
1085 1 19.6263 -7.88686 0 
1087 1 20.758 -7.8865 0 
1089 1 21.8893 -7.88482 0 
1091 1 23.0201 -7.87927 0 
1093 1 24.1525 -7.87486 0 
1095 2 25.2861 -7.87134 0 
1097 2 26.419 -7.86899 0 
1099 2 27.5519 -7.8668 0 
1102 2 -27.3381 -6.63684 0 
1104 2 -26.2124 -6.60035 0 
1106 2 -25.0865 -6.56307 0 
1108 1 -23.9614 -6.52362 0 
1109 1 -23.3653 -7.47299 0 
1110 1 -22.8336 -6.48013 0 
1111 1 -22.2363 -7.4288 0 
1112 1 -21.7055 -6.43584 0 
1113 1 -21.1086 -7.38451 0 
1114 1 -20.5791 -6.39179 0 
1115 1 -19.9816 -7.33872 0 
1116 1 -19.4513 -6.34645 0 
1117 1 -18.8518 -7.29238 0 
1119 1 -17.7187 -7.24407 0 
1121 1 -16.5864 -7.19211 0 
1123 1 -15.4545 -7.13647 0 
1125 1 -14.3206 -7.07808 0 
1127 1 -13.1876 -7.01954 0 
1129 1 -12.0542 -6.95963 0 
1131 1 -10.9179 -6.90023 0 
1133 1 -9.78166 -6.83502 0 
1135 1 -8.64886 -6.76485 0 
1137 1 -7.51646 -6.68891 0 
1139 1 -6.38411 -6.61287 0 
1141 1 -5.25197 -6.5299 0 
1143 1 -4.12139 -6.44298 0 
1145 1 -2.99321 -6.35671 0 
1046 1 -2.40194 -7.31299 0 
1147 1 -1.87106 -6.27121 0 
1048 1 -1.28141 -7.24226 0 
1050 1 -0.164159 -7.17606 0 
1052 1 0.956091 -7.12883 0 
1054 1 2.07841 -7.08738 0 
1056 1 3.2033 -7.05268 0 
1058 1 4.32823 -7.02155 0 
1060 1 5.45344 -6.99661 0 
1062 1 6.57765 -6.98232 0 
1064 1 7.7045 -6.97307 0 
1066 1 8.83887 -6.96289 0 
1068 1 9.97073 -6.94981 0 
1070 1 11.098 -6.94666 0 
1072 1 12.2273 -6.94445 0 
1074 1 13.3633 -6.93854 0 
1076 1 14.5024 -6.92571 0 
1078 1 15.6404 -6.91473 0 
1080 1 16.7773 -6.90713 0 
1082 1 17.9139 -6.9025 0 
1084 1 19.0489 -6.90033 0 
1086 1 20.1813 -6.89948 0 
1088 1 21.3137 -6.89987 0 
1090 1 22.4462 -6.89688 0 
1092 1 23.5784 -6.89226 0 
1094 1 24.7113 -6.88861 0 
1096 2 25.8451 -6.88616 0 
1098 2 26.9784 -6.88422 0 
1100 2 28.1116 -6.88241 0 
1201 2 -27.9311 -5.68349 0 