ITEM: TIMESTEP
4400
ITEM: NUMBER OF ATOMS
2850
ITEM: BOX BOUNDS ff ff pp
-42.092 42.092
-42.092 42.092
-0.280613 0.280613
ITEM: ATOMS id type xu yu zu 
1 2 -27.3398 -28.9988 0 
3 2 -26.2107 -28.9642 0 
5 2 -25.0816 -28.9291 0 
7 2 -23.9525 -28.8936 0 
9 2 -22.8235 -28.8577 0 
11 2 -21.6944 -28.8213 0 
13 2 -20.5655 -28.7844 0 
15 2 -19.4366 -28.7472 0 
17 2 -18.3079 -28.7095 0 
19 2 -17.1793 -28.6715 0 
21 2 -16.0508 -28.6331 0 
23 2 -14.9226 -28.5944 0 
25 2 -13.7947 -28.5554 0 
27 2 -12.667 -28.5163 0 
29 2 -11.5396 -28.477 0 
31 2 -10.4126 -28.4376 0 
33 2 -9.28592 -28.3982 0 
35 2 -8.15967 -28.3589 0 
37 2 -7.03386 -28.3198 0 
39 2 -5.90848 -28.281 0 
2 2 -26.7941 -28.0086 0 
4 2 -25.6649 -27.9736 0 
6 2 -24.5357 -27.9381 0 
8 2 -23.4065 -27.902 0 
10 2 -22.2773 -27.8656 0 
12 2 -21.1481 -27.8286 0 
14 2 -20.019 -27.7912 0 
16 2 -18.89 -27.7533 0 
18 2 -17.7611 -27.715 0 
20 2 -16.6324 -27.6763 0 
22 2 -15.5039 -27.6373 0 
24 2 -14.3755 -27.5979 0 
26 2 -13.2475 -27.5582 0 
28 2 -12.1197 -27.5183 0 
30 2 -10.9923 -27.4783 0 
32 2 -9.86522 -27.4382 0 
34 2 -8.73856 -27.3981 0 
36 2 -7.61233 -27.3581 0 
38 2 -6.48656 -27.3184 0 
40 2 -5.36126 -27.2789 0 
41 2 -4.78357 -28.2426 0 
42 2 -4.23645 -27.24 0 
43 2 -3.65912 -28.2046 0 
44 2 -3.11213 -27.2015 0 
45 2 -2.53513 -28.1673 0 
46 2 -1.98828 -27.1638 0 
47 2 -1.41159 -28.1307 0 
48 2 -0.8649 -27.1269 0 
49 2 -0.288464 -28.095 0 
51 2 0.834263 -28.0602 0 
53 2 1.95663 -28.0264 0 
55 2 3.07869 -27.9937 0 
57 2 4.20048 -27.9622 0 
59 2 5.32207 -27.9319 0 
61 2 6.4435 -27.9029 0 
63 2 7.56483 -27.8752 0 
65 2 8.68613 -27.8488 0 
67 2 9.80743 -27.8237 0 
69 2 10.9288 -27.8 0 
71 2 12.0503 -27.7775 0 
73 2 13.1719 -27.7563 0 
75 2 14.2937 -27.7363 0 
77 2 15.4157 -27.7174 0 
79 2 16.538 -27.6997 0 
81 2 17.6605 -27.683 0 
83 2 18.7832 -27.6673 0 
85 2 19.9063 -27.6526 0 
87 2 21.0296 -27.6388 0 
89 2 22.1532 -27.6258 0 
91 2 23.2771 -27.6136 0 
93 2 24.4012 -27.6022 0 
95 2 25.5256 -27.5914 0 
97 2 26.6503 -27.5812 0 
99 2 27.7752 -27.5717 0 
101 2 -27.378 -27.0533 0 
103 2 -26.2487 -27.0183 0 
102 2 -26.833 -26.0633 0 
105 2 -25.1194 -26.9828 0 
104 2 -25.7037 -26.0278 0 
107 2 -23.9901 -26.9468 0 
106 2 -24.5742 -25.9918 0 
109 2 -22.8607 -26.9102 0 
108 1 -23.4444 -25.955 0 
111 2 -21.7314 -26.8732 0 
113 2 -20.6021 -26.8357 0 
115 2 -19.4729 -26.7977 0 
117 2 -18.3437 -26.7591 0 
119 2 -17.2147 -26.7202 0 
121 2 -16.0858 -26.6808 0 
123 2 -14.9572 -26.641 0 
125 2 -13.8287 -26.6009 0 
127 2 -12.7006 -26.5605 0 
129 2 -11.5727 -26.5198 0 
131 2 -10.4452 -26.479 0 
133 2 -9.31813 -26.4382 0 
135 2 -8.19146 -26.3973 0 
137 2 -7.06526 -26.3566 0 
139 2 -5.93954 -26.3162 0 
141 2 -4.81433 -26.2762 0 
143 2 -3.68963 -26.2366 0 
145 2 -2.56545 -26.1977 0 
147 2 -1.44177 -26.1596 0 
50 2 0.258046 -27.0909 0 
149 2 -0.318563 -26.1224 0 
52 2 1.38059 -27.056 0 
151 2 0.804196 -26.0862 0 
54 2 2.50279 -27.0222 0 
153 2 1.92656 -26.0512 0 
56 2 3.62468 -26.9896 0 
155 2 3.04857 -26.0174 0 
58 2 4.74633 -26.9582 0 
157 2 4.1703 -25.9849 0 
60 2 5.86779 -26.9282 0 
159 2 5.2918 -25.9538 0 
62 2 6.98913 -26.8996 0 
64 2 8.11041 -26.8723 0 
66 2 9.23169 -26.8465 0 
68 2 10.353 -26.822 0 
70 2 11.4745 -26.7989 0 
72 2 12.596 -26.7771 0 
74 2 13.7178 -26.7566 0 
76 2 14.8398 -26.7373 0 
78 2 15.962 -26.7192 0 
80 2 17.0845 -26.7023 0 
82 2 18.2073 -26.6863 0 
84 2 19.3304 -26.6714 0 
86 2 20.4538 -26.6575 0 
88 2 21.5774 -26.6444 0 
90 2 22.7014 -26.6321 0 
92 2 23.8256 -26.6206 0 
94 2 24.9501 -26.6098 0 
96 2 26.0749 -26.5996 0 
98 2 27.2 -26.5901 0 
100 2 28.3253 -26.5811 0 
201 2 -27.4179 -25.1085 0 
203 2 -26.2885 -25.0731 0 
205 2 -25.159 -25.0372 0 
207 2 -24.0295 -25.0007 0 
209 1 -22.8991 -24.9629 0 
110 1 -22.3146 -25.9177 0 
211 1 -21.7691 -24.9245 0 
112 1 -21.1851 -25.8797 0 
213 1 -20.6393 -24.8857 0 
114 1 -20.0556 -25.8413 0 
215 1 -19.5096 -24.8466 0 
116 1 -18.9262 -25.8024 0 
217 1 -18.38 -24.8066 0 
118 1 -17.797 -25.7631 0 
120 1 -16.6679 -25.7233 0 
122 1 -15.5391 -25.6831 0 
124 1 -14.4106 -25.6426 0 
126 1 -13.2823 -25.6018 0 
128 1 -12.1544 -25.5603 0 
130 1 -11.0269 -25.5189 0 
132 1 -9.89974 -25.4773 0 
134 1 -8.77303 -25.4358 0 
136 1 -7.64691 -25.3943 0 
138 1 -6.52116 -25.353 0 
140 1 -5.3959 -25.312 0 
142 1 -4.271 -25.2715 0 
144 1 -3.14669 -25.2315 0 
146 1 -2.02296 -25.1922 0 
148 1 -0.899633 -25.1539 0 
150 1 0.223344 -25.1168 0 
152 1 1.34586 -25.0807 0 
154 1 2.46815 -25.0459 0 
156 1 3.5901 -25.0125 0 
158 1 4.7119 -24.9807 0 
160 1 5.83358 -24.95 0 
161 2 6.41316 -25.9242 0 
162 1 6.95527 -24.921 0 
163 2 7.53443 -25.896 0 
164 1 8.07701 -24.8936 0 
165 2 8.65568 -25.8693 0 
167 2 9.77697 -25.844 0 
166 1 9.19874 -24.8677 0 
169 2 10.8984 -25.8202 0 
168 1 10.3205 -24.8433 0 
171 2 12.0199 -25.7978 0 
170 1 11.4425 -24.8203 0 
173 2 13.1416 -25.7768 0 
175 2 14.2636 -25.7571 0 
177 2 15.3858 -25.7386 0 
179 2 16.5083 -25.7213 0 
181 2 17.6311 -25.7052 0 
183 2 18.7543 -25.6901 0 
185 2 19.8777 -25.6759 0 
187 2 21.0014 -25.6627 0 
189 2 22.1254 -25.6504 0 
191 2 23.2498 -25.6388 0 
193 2 24.3744 -25.628 0 
195 2 25.4993 -25.6179 0 
197 2 26.6245 -25.6084 0 
199 2 27.75 -25.5994 0 
202 2 -26.8739 -24.1187 0 
204 2 -25.7444 -24.0828 0 
206 2 -24.6148 -24.0464 0 
208 1 -23.4844 -24.0088 0 
210 1 -22.3541 -23.9701 0 
212 1 -21.224 -23.9309 0 
214 1 -20.094 -23.8914 0 
216 1 -18.964 -23.8512 0 
219 1 -17.2509 -24.7665 0 
218 1 -17.8345 -23.8103 0 
221 1 -16.1219 -24.7259 0 
220 1 -16.7054 -23.7694 0 
222 1 -15.5765 -23.7279 0 
223 1 -14.9932 -24.6848 0 
224 1 -14.4478 -23.6859 0 
225 1 -13.8649 -24.6436 0 
227 1 -12.7368 -24.6017 0 
229 1 -11.609 -24.5595 0 
231 1 -10.4818 -24.5172 0 
233 1 -9.35501 -24.4749 0 
235 1 -8.2286 -24.4324 0 
237 1 -7.10267 -24.3904 0 
239 1 -5.97728 -24.3483 0 
241 1 -4.85234 -24.3069 0 
243 1 -3.72792 -24.2659 0 
245 1 -2.60408 -24.2254 0 
247 1 -1.48059 -24.1861 0 
249 1 -0.357486 -24.1479 0 
251 1 0.765267 -24.1106 0 
253 1 1.8878 -24.0749 0 
255 1 3.01003 -24.0403 0 
257 1 4.13206 -24.0075 0 
259 1 5.25407 -23.9762 0 
261 1 6.37605 -23.9464 0 
263 1 7.49796 -23.9182 0 
265 1 8.61989 -23.8916 0 
267 1 9.742 -23.8664 0 
269 1 10.8643 -23.8428 0 
271 1 11.9868 -23.8206 0 
172 1 12.5646 -24.7986 0 
273 1 13.1094 -23.7999 0 
174 1 13.6869 -24.7785 0 
275 1 14.2321 -23.7805 0 
176 1 14.8094 -24.7595 0 
277 1 15.355 -23.7624 0 
178 1 15.9321 -24.7418 0 
279 1 16.4783 -23.7455 0 
180 1 17.0551 -24.7254 0 
281 1 17.6018 -23.7298 0 
182 1 18.1784 -24.7099 0 
283 1 18.7257 -23.715 0 
184 1 19.302 -24.6955 0 
285 1 19.8498 -23.7013 0 
186 1 20.4259 -24.6821 0 
287 1 20.974 -23.6886 0 
188 1 21.5501 -24.6696 0 
289 1 22.0985 -23.6765 0 
190 1 22.6744 -24.6577 0 
291 1 23.2232 -23.6652 0 
192 1 23.7991 -24.6466 0 
293 1 24.3481 -23.6545 0 
194 1 24.9239 -24.6363 0 
295 2 25.4729 -23.6443 0 
196 2 26.0488 -24.6264 0 
198 2 27.1745 -24.6176 0 
200 2 28.3003 -24.6093 0 
301 2 -27.4598 -23.1644 0 
303 2 -26.3303 -23.1287 0 
305 2 -25.2007 -23.0924 0 
307 2 -24.071 -23.0555 0 
309 1 -22.9401 -23.0164 0 
311 1 -21.8097 -22.9769 0 
313 1 -20.6792 -22.9369 0 
315 1 -19.5491 -22.8966 0 
317 1 -18.4193 -22.8552 0 
319 1 -17.2896 -22.8136 0 
321 1 -16.1604 -22.7716 0 
323 1 -15.0315 -22.7291 0 
226 1 -13.3195 -23.6437 0 
325 1 -13.9028 -22.6863 0 
327 1 -12.7747 -22.6431 0 
228 1 -12.1917 -23.601 0 
329 1 -11.6469 -22.5994 0 
230 1 -11.0642 -23.5579 0 
331 1 -10.5197 -22.5553 0 
232 1 -9.93724 -23.5148 0 
333 1 -9.39297 -22.5115 0 
234 1 -8.81068 -23.4716 0 
236 1 -7.6845 -23.4284 0 
238 1 -6.55894 -23.3855 0 
240 1 -5.43374 -23.3429 0 
242 1 -4.30915 -23.3009 0 
244 1 -3.18508 -23.2594 0 
246 1 -2.06135 -23.2188 0 
248 1 -0.938101 -23.1793 0 
250 1 0.184784 -23.141 0 
252 1 1.30748 -23.1042 0 
254 1 2.42988 -23.0687 0 
256 1 3.55216 -23.0345 0 
258 1 4.6743 -23.0024 0 
260 1 5.79647 -22.9718 0 
262 1 6.91859 -22.9429 0 
264 1 8.0408 -22.9155 0 
266 1 9.16316 -22.8898 0 
268 1 10.2858 -22.8656 0 
270 1 11.4084 -22.8428 0 
272 1 12.5313 -22.8214 0 
274 1 13.6543 -22.8015 0 
276 1 14.7776 -22.7829 0 
278 1 15.9011 -22.7656 0 
280 1 17.0249 -22.7496 0 
282 1 18.1489 -22.7346 0 
284 1 19.2732 -22.7206 0 
286 1 20.3978 -22.7074 0 
288 1 21.5223 -22.6952 0 
290 1 22.6471 -22.6837 0 
292 1 23.7721 -22.6729 0 
294 1 24.8973 -22.6626 0 
297 2 26.5987 -23.6355 0 
296 2 26.0228 -22.6533 0 
299 2 27.7248 -23.6273 0 
298 2 27.149 -22.6452 0 
300 2 28.2755 -22.6376 0 
302 2 -26.9167 -22.1747 0 
304 2 -25.7871 -22.1385 0 
306 2 -24.6574 -22.1018 0 
308 1 -23.5267 -22.0633 0 
310 1 -22.396 -22.0235 0 
312 1 -21.2654 -21.9833 0 
314 1 -20.1349 -21.9424 0 
316 1 -19.0047 -21.901 0 
318 1 -17.8747 -21.8589 0 
320 1 -16.7451 -21.8163 0 
322 1 -15.6159 -21.7732 0 
324 1 -14.4869 -21.7299 0 
326 1 -13.3583 -21.686 0 
328 1 -12.2302 -21.6417 0 
330 1 -11.1027 -21.5968 0 
332 1 -9.97549 -21.552 0 
334 1 -8.84893 -21.5072 0 
335 1 -8.26663 -22.4674 0 
336 1 -7.72286 -21.4622 0 
337 1 -7.14076 -22.4234 0 
338 1 -6.5971 -21.4176 0 
339 1 -6.01535 -22.3799 0 
340 1 -5.4721 -21.3731 0 
341 1 -4.89055 -22.3366 0 
343 1 -3.76625 -22.294 0 
345 1 -2.64232 -22.2523 0 
347 1 -1.51891 -22.2115 0 
349 1 -0.395811 -22.1719 0 
351 1 0.727007 -22.1339 0 
353 1 1.84951 -22.0974 0 
355 1 2.97192 -22.0621 0 
357 1 4.09432 -22.0287 0 
359 1 5.21655 -21.9974 0 
361 1 6.33884 -21.9675 0 
363 1 7.46131 -21.9395 0 
365 1 8.58394 -21.9131 0 
367 1 9.70666 -21.8883 0 
369 1 10.8295 -21.8649 0 
371 1 11.9526 -21.843 0 
373 1 13.076 -21.8225 0 
375 1 14.1996 -21.8035 0 
377 1 15.3234 -21.7858 0 
379 1 16.4475 -21.7694 0 
381 1 17.5715 -21.754 0 
383 1 18.696 -21.7398 0 
385 1 19.8207 -21.7265 0 
387 1 20.9456 -21.7138 0 
389 1 22.0707 -21.7022 0 
391 1 23.1959 -21.6912 0 
393 1 24.3213 -21.6809 0 
395 2 25.4466 -21.6709 0 
397 2 26.573 -21.6629 0 
399 2 27.6998 -21.6554 0 
401 2 -27.5037 -21.2208 0 
403 2 -26.3741 -21.1849 0 
402 2 -26.9617 -20.2313 0 
405 2 -25.2445 -21.1483 0 
404 2 -25.8321 -20.1949 0 
407 2 -24.1147 -21.111 0 
409 1 -22.9835 -21.0709 0 
411 1 -21.8525 -21.0303 0 
413 1 -20.7218 -20.9892 0 
415 1 -19.5912 -20.9474 0 
417 1 -18.4608 -20.905 0 
419 1 -17.3309 -20.862 0 
421 1 -16.2011 -20.8183 0 
423 1 -15.0718 -20.7744 0 
425 1 -13.9429 -20.7299 0 
427 1 -12.8145 -20.6849 0 
429 1 -11.6865 -20.6393 0 
431 1 -10.5589 -20.5936 0 
433 1 -9.43178 -20.5478 0 
435 1 -8.30534 -20.5019 0 
437 1 -7.17935 -20.4563 0 
439 1 -6.05396 -20.4105 0 
342 1 -4.34758 -21.3294 0 
441 1 -4.92915 -20.3655 0 
344 1 -3.22349 -21.2864 0 
443 1 -3.80492 -20.3213 0 
346 1 -2.09993 -21.2443 0 
445 1 -2.68115 -20.2778 0 
348 1 -0.976645 -21.2035 0 
447 1 -1.55779 -20.2357 0 
350 1 0.146345 -21.164 0 
352 1 1.26904 -21.1262 0 
354 1 2.39152 -21.09 0 
356 1 3.51395 -21.0555 0 
358 1 4.63641 -21.023 0 
360 1 5.75888 -20.9923 0 
362 1 6.88155 -20.9634 0 
364 1 8.00437 -20.9363 0 
366 1 9.12731 -20.9109 0 
368 1 10.2503 -20.8869 0 
370 1 11.3736 -20.8646 0 
372 1 12.4973 -20.8437 0 
374 1 13.621 -20.8241 0 
376 1 14.7451 -20.8059 0 
378 1 15.8694 -20.7891 0 
380 1 16.9939 -20.7735 0 
382 1 18.1186 -20.7589 0 
384 1 19.2435 -20.7454 0 
386 1 20.3686 -20.7326 0 
388 1 21.4939 -20.7207 0 
390 1 22.6193 -20.7096 0 
392 1 23.745 -20.6992 0 
394 1 24.8708 -20.6892 0 
396 2 25.9969 -20.6804 0 
398 2 27.1238 -20.673 0 
400 2 28.251 -20.6661 0 
501 2 -27.5497 -19.2779 0 
503 2 -26.4202 -19.2417 0 
505 2 -25.2906 -19.2049 0 
406 2 -24.7023 -20.1579 0 
507 2 -24.1608 -19.1673 0 
408 1 -23.5715 -20.1189 0 
509 1 -23.0294 -19.1264 0 
410 1 -22.4405 -20.078 0 
511 1 -21.898 -19.0848 0 
412 1 -21.3095 -20.0366 0 
513 1 -20.7669 -19.0426 0 
414 1 -20.1786 -19.9947 0 
416 1 -19.0479 -19.9519 0 
418 1 -17.9176 -19.9084 0 
420 1 -16.7874 -19.8645 0 
422 1 -15.6576 -19.8199 0 
424 1 -14.5283 -19.7747 0 
426 1 -13.3993 -19.7291 0 
428 1 -12.2709 -19.6829 0 
430 1 -11.1429 -19.6363 0 
432 1 -10.0154 -19.5896 0 
434 1 -8.88836 -19.5425 0 
436 1 -7.7619 -19.4958 0 
438 1 -6.63631 -19.449 0 
440 1 -5.51115 -19.4025 0 
442 1 -4.38658 -19.3569 0 
444 1 -3.2626 -19.3121 0 
446 1 -2.139 -19.2684 0 
448 1 -1.01572 -19.2263 0 
449 1 -0.434674 -20.1948 0 
450 1 0.107253 -19.1855 0 
451 1 0.688152 -20.1556 0 
452 1 1.22993 -19.1467 0 
453 1 1.81086 -20.1182 0 
454 1 2.35269 -19.1099 0 
455 1 2.93346 -20.0826 0 
456 1 3.47551 -19.0751 0 
457 1 4.05605 -20.049 0 
459 1 5.17873 -20.0173 0 
461 1 6.3015 -19.9874 0 
463 1 7.4244 -19.9595 0 
465 1 8.54754 -19.9335 0 
467 1 9.67075 -19.9089 0 
469 1 10.7944 -19.8861 0 
471 1 11.9182 -19.8647 0 
473 1 13.0422 -19.8446 0 
475 1 14.1666 -19.8261 0 
477 1 15.2911 -19.8087 0 
479 1 16.4159 -19.7928 0 
481 1 17.5409 -19.778 0 
483 1 18.666 -19.7641 0 
485 1 19.7914 -19.7513 0 
487 1 20.917 -19.7392 0 
489 1 22.0428 -19.728 0 
491 1 23.1686 -19.7175 0 
493 1 24.2944 -19.7074 0 
495 2 25.4205 -19.6978 0 
497 2 26.5477 -19.6905 0 
499 2 27.6751 -19.6838 0 
502 2 -27.0088 -18.2886 0 
504 2 -25.8793 -18.252 0 
506 2 -24.7497 -18.2147 0 
508 1 -23.6187 -18.1751 0 
510 1 -22.4875 -18.1335 0 
512 1 -21.3562 -18.0911 0 
514 1 -20.2251 -18.0481 0 
515 1 -19.6361 -18.9998 0 
516 1 -19.0942 -18.0042 0 
517 1 -18.5054 -18.9559 0 
518 1 -17.9633 -17.9595 0 
519 1 -17.3748 -18.9115 0 
520 1 -16.8327 -17.914 0 
521 1 -16.2446 -18.8665 0 
523 1 -15.1147 -18.8206 0 
525 1 -13.9852 -18.7743 0 
527 1 -12.8562 -18.7274 0 
529 1 -11.7276 -18.6801 0 
531 1 -10.5996 -18.6324 0 
533 1 -9.47226 -18.5845 0 
535 1 -8.34539 -18.5365 0 
537 1 -7.21928 -18.4885 0 
539 1 -6.09376 -18.4408 0 
541 1 -4.96892 -18.3935 0 
543 1 -3.84461 -18.3471 0 
545 1 -2.72076 -18.302 0 
547 1 -1.59742 -18.2583 0 
549 1 -0.47432 -18.216 0 
551 1 0.648665 -18.1756 0 
553 1 1.77155 -18.1376 0 
555 1 2.89442 -18.1014 0 
557 1 4.01731 -18.0675 0 
458 1 4.59828 -19.0424 0 
559 1 5.14031 -18.0358 0 
460 1 5.7211 -19.0116 0 
561 1 6.26351 -18.0062 0 
462 1 6.84409 -18.9829 0 
563 1 7.38686 -17.9786 0 
464 1 7.96737 -18.9561 0 
565 1 8.51053 -17.9528 0 
466 1 9.09089 -18.9308 0 
567 1 9.63462 -17.9288 0 
468 1 10.2147 -18.9075 0 
569 1 10.7589 -17.9065 0 
470 1 11.3387 -18.8856 0 
472 1 12.463 -18.8651 0 
474 1 13.5876 -18.8462 0 
476 1 14.7124 -18.8284 0 
478 1 15.8375 -18.8121 0 
480 1 16.9627 -18.797 0 
482 1 18.088 -18.7829 0 
484 1 19.2138 -18.7699 0 
486 1 20.3397 -18.7577 0 
488 1 21.4657 -18.7462 0 
490 1 22.5918 -18.7357 0 
492 1 23.7181 -18.7257 0 
494 1 24.8446 -18.716 0 
496 2 25.9714 -18.7078 0 
498 2 27.0991 -18.7012 0 
500 2 28.2271 -18.6951 0 
601 2 -27.5979 -17.3354 0 
603 2 -26.4686 -17.2992 0 
605 2 -25.3391 -17.2621 0 
607 2 -24.2094 -17.2244 0 
609 1 -23.0779 -17.1826 0 
611 1 -21.9466 -17.1403 0 
613 1 -20.8152 -17.0971 0 
615 1 -19.684 -17.0531 0 
617 1 -18.5528 -17.0083 0 
619 1 -17.4218 -16.9625 0 
522 1 -15.7024 -17.8677 0 
621 1 -16.291 -16.9158 0 
524 1 -14.5723 -17.8208 0 
623 1 -15.1605 -16.8685 0 
526 1 -13.4427 -17.7732 0 
625 1 -14.0304 -16.8201 0 
528 1 -12.3137 -17.725 0 
627 1 -12.9007 -16.7712 0 
530 1 -11.185 -17.6764 0 
532 1 -10.057 -17.6275 0 
534 1 -8.92974 -17.5784 0 
536 1 -7.80313 -17.5291 0 
538 1 -6.67711 -17.4801 0 
540 1 -5.5518 -17.4313 0 
542 1 -4.42719 -17.3832 0 
544 1 -3.30299 -17.3364 0 
546 1 -2.17938 -17.2908 0 
548 1 -1.0561 -17.2472 0 
550 1 0.0670455 -17.2052 0 
552 1 1.19004 -17.1655 0 
554 1 2.3129 -17.128 0 
556 1 3.43584 -17.0929 0 
558 1 4.55897 -17.0602 0 
560 1 5.68232 -17.0295 0 
562 1 6.80591 -17.001 0 
564 1 7.92977 -16.9747 0 
566 1 9.054 -16.9501 0 
568 1 10.1785 -16.9273 0 
571 1 11.8833 -17.8855 0 
570 1 11.3033 -16.9058 0 
573 1 13.0081 -17.8662 0 
572 1 12.4283 -16.8861 0 
575 1 14.1332 -17.8481 0 
574 1 13.5537 -16.8676 0 
577 1 15.2586 -17.8313 0 
576 1 14.6793 -16.8504 0 
579 1 16.3842 -17.8159 0 
578 1 15.8052 -16.8349 0 
581 1 17.5098 -17.8015 0 
580 1 16.9313 -16.8203 0 
583 1 18.6358 -17.7883 0 
582 1 18.0576 -16.8067 0 
585 1 19.7621 -17.776 0 
584 1 19.1841 -16.7943 0 
587 1 20.8883 -17.7645 0 
586 1 20.3107 -16.7826 0 
589 1 22.0148 -17.7537 0 
588 1 21.4375 -16.7719 0 
591 1 23.1415 -17.7439 0 
590 1 22.5645 -16.7619 0 
593 1 24.2681 -17.7342 0 
592 1 23.6915 -16.7523 0 
595 2 25.3948 -17.725 0 
594 1 24.8187 -16.7432 0 
596 2 25.9465 -16.7357 0 
597 2 26.5229 -17.7186 0 
598 2 27.0751 -16.7299 0 
599 2 27.6512 -17.7126 0 
600 2 28.2039 -16.7246 0 
602 2 -27.0583 -16.3463 0 
604 2 -25.929 -16.3096 0 
606 2 -24.7995 -16.2721 0 
608 1 -23.6687 -16.2322 0 
610 1 -22.5376 -16.1898 0 
612 1 -21.4063 -16.1467 0 
614 1 -20.2749 -16.1027 0 
616 1 -19.1434 -16.0578 0 
618 1 -18.012 -16.0119 0 
620 1 -16.8808 -15.9649 0 
622 1 -15.7498 -15.9171 0 
624 1 -14.6192 -15.8683 0 
626 1 -13.4889 -15.8187 0 
628 1 -12.359 -15.7685 0 
629 1 -11.7715 -16.7218 0 
630 1 -11.2298 -15.7176 0 
631 1 -10.6429 -16.6719 0 
632 1 -10.1013 -15.6662 0 
633 1 -9.51494 -16.6215 0 
634 1 -8.9735 -15.6142 0 
635 1 -8.3878 -16.5709 0 
637 1 -7.26129 -16.5206 0 
639 1 -6.1355 -16.4704 0 
641 1 -5.01042 -16.4205 0 
643 1 -3.88589 -16.3719 0 
645 1 -2.76202 -16.3245 0 
647 1 -1.63846 -16.2791 0 
649 1 -0.515243 -16.2355 0 
651 1 0.607855 -16.194 0 
653 1 1.73087 -16.1549 0 
655 1 2.85394 -16.1185 0 
657 1 3.97723 -16.0846 0 
659 1 5.10069 -16.0529 0 
661 1 6.22445 -16.0236 0 
663 1 7.34862 -15.9964 0 
665 1 8.47313 -15.9714 0 
667 1 9.59789 -15.9479 0 
669 1 10.7229 -15.9261 0 
671 1 11.8482 -15.9059 0 
673 1 12.9738 -15.887 0 
675 1 14.0997 -15.8694 0 
677 1 15.2259 -15.8535 0 
679 1 16.3522 -15.839 0 
681 1 17.4789 -15.8253 0 
683 1 18.6058 -15.8126 0 
685 1 19.7328 -15.8007 0 
687 1 20.8601 -15.7899 0 
689 1 21.9875 -15.7799 0 
691 1 23.1149 -15.7703 0 
693 1 24.2423 -15.7614 0 
695 2 25.3699 -15.7527 0 
697 2 26.4989 -15.7471 0 
699 2 27.6281 -15.742 0 
701 2 -27.6483 -15.3934 0 
703 2 -26.5193 -15.357 0 
705 2 -25.3901 -15.3199 0 
707 2 -24.2607 -15.282 0 
709 1 -23.1293 -15.2397 0 
711 1 -21.9979 -15.1968 0 
713 1 -20.8665 -15.1528 0 
715 1 -19.735 -15.1081 0 
717 1 -18.6034 -15.062 0 
719 1 -17.4719 -15.015 0 
721 1 -16.3405 -14.9669 0 
723 1 -15.2093 -14.9176 0 
725 1 -14.0785 -14.8675 0 
727 1 -12.9479 -14.8166 0 
729 1 -11.818 -14.7647 0 
731 1 -10.6887 -14.7123 0 
733 1 -9.56029 -14.6592 0 
636 1 -7.84636 -15.5624 0 
735 1 -8.43238 -14.6058 0 
638 1 -6.71994 -15.5107 0 
737 1 -7.30526 -14.5524 0 
640 1 -5.59441 -15.4592 0 
739 1 -6.17913 -14.4992 0 
642 1 -4.46951 -15.4086 0 
644 1 -3.34534 -15.3592 0 
646 1 -2.22155 -15.3119 0 
648 1 -1.09812 -15.2664 0 
650 1 0.0250027 -15.2231 0 
652 1 1.1482 -15.1824 0 
654 1 2.27153 -15.1443 0 
656 1 3.39503 -15.1092 0 
658 1 4.51865 -15.0765 0 
660 1 5.64263 -15.0462 0 
662 1 6.76688 -15.0182 0 
664 1 7.89156 -14.9924 0 
666 1 9.01653 -14.9685 0 
668 1 10.1419 -14.9462 0 
670 1 11.2676 -14.9256 0 
672 1 12.3936 -14.9064 0 
674 1 13.5198 -14.8885 0 
676 1 14.6463 -14.8723 0 
678 1 15.7732 -14.8573 0 
680 1 16.9001 -14.8435 0 
682 1 18.0273 -14.8308 0 
684 1 19.1546 -14.8189 0 
686 1 20.2824 -14.8079 0 
688 1 21.4103 -14.7978 0 
690 1 22.538 -14.7882 0 
692 1 23.6659 -14.7793 0 
694 1 24.7941 -14.771 0 
696 2 25.9226 -14.7642 0 
698 2 27.0521 -14.7592 0 
700 2 28.1818 -14.7547 0 
702 2 -27.11 -14.4044 0 
801 2 -27.7009 -13.4516 0 
704 2 -25.9811 -14.3676 0 
803 2 -26.5724 -13.4152 0 
706 2 -24.852 -14.3301 0 
805 2 -25.4437 -13.3781 0 
708 1 -23.7214 -14.2899 0 
807 2 -24.3146 -13.3401 0 
710 1 -22.5903 -14.2471 0 
809 1 -23.1836 -13.2977 0 
712 1 -21.459 -14.2035 0 
714 1 -20.3274 -14.1588 0 
716 1 -19.1958 -14.1129 0 
718 1 -18.0641 -14.0659 0 
720 1 -16.9325 -14.0178 0 
722 1 -15.8009 -13.9683 0 
724 1 -14.6695 -13.9176 0 
726 1 -13.5384 -13.8661 0 
728 1 -12.4079 -13.8135 0 
730 1 -11.2777 -13.7601 0 
732 1 -10.1484 -13.7058 0 
734 1 -9.01982 -13.6511 0 
736 1 -7.89202 -13.596 0 
738 1 -6.76514 -13.5408 0 
740 1 -5.6391 -13.4862 0 
741 1 -5.05382 -14.4467 0 
742 1 -4.514 -13.4324 0 
743 1 -3.92928 -14.3951 0 
744 1 -3.38958 -13.3804 0 
745 1 -2.80514 -14.3456 0 
746 1 -2.26579 -13.3305 0 
747 1 -1.68159 -14.298 0 
749 1 -0.558268 -14.2527 0 
751 1 0.565016 -14.2103 0 
753 1 1.68841 -14.1706 0 
755 1 2.81213 -14.134 0 
757 1 3.93601 -14.1001 0 
759 1 5.06021 -14.0689 0 
761 1 6.18467 -14.04 0 
763 1 7.30957 -14.0134 0 
765 1 8.43494 -13.9888 0 
767 1 9.5606 -13.9661 0 
769 1 10.6865 -13.9451 0 
771 1 11.8129 -13.9256 0 
773 1 12.9395 -13.9075 0 
775 1 14.0664 -13.891 0 
777 1 15.1936 -13.8758 0 
779 1 16.3211 -13.8616 0 
781 1 17.4487 -13.8487 0 
783 1 18.5764 -13.8368 0 
785 1 19.7043 -13.8259 0 
787 1 20.8325 -13.8157 0 
789 1 21.9608 -13.8061 0 
791 1 23.0893 -13.7973 0 
793 1 24.2177 -13.7891 0 
795 2 25.3462 -13.7811 0 
797 2 26.4761 -13.7764 0 
799 2 27.6062 -13.772 0 
802 2 -27.164 -12.4626 0 
804 2 -26.0357 -12.4259 0 
806 2 -24.9071 -12.3884 0 
808 1 -23.7769 -12.3482 0 
810 1 -22.6462 -12.3053 0 
811 1 -22.0524 -13.2544 0 
812 1 -21.5153 -12.2613 0 
813 1 -20.921 -13.21 0 
814 1 -20.3839 -12.2162 0 
815 1 -19.7893 -13.1644 0 
816 1 -19.2521 -12.1697 0 
817 1 -18.6575 -13.1174 0 
818 1 -18.1201 -12.1218 0 
819 1 -17.5256 -13.0694 0 
821 1 -16.3937 -13.0199 0 
823 1 -15.2619 -12.969 0 
825 1 -14.1302 -12.917 0 
827 1 -12.9989 -12.8637 0 
829 1 -11.8681 -12.8096 0 
831 1 -10.7379 -12.7542 0 
833 1 -9.60844 -12.698 0 
835 1 -8.47982 -12.6414 0 
837 1 -7.35222 -12.5843 0 
839 1 -6.22547 -12.5275 0 
841 1 -5.09974 -12.4712 0 
843 1 -3.9748 -12.4166 0 
845 1 -2.85073 -12.364 0 
748 1 -1.14234 -13.2831 0 
847 1 -1.72707 -12.3142 0 
849 1 -0.603519 -12.2676 0 
750 1 -0.0189322 -13.2387 0 
851 1 0.520018 -12.2242 0 
752 1 1.10456 -13.1973 0 
853 1 1.64395 -12.1843 0 
754 1 2.2284 -13.159 0 
756 1 3.35249 -13.1237 0 
758 1 4.47706 -13.0914 0 
760 1 5.60189 -13.0617 0 
762 1 6.7272 -13.0343 0 
764 1 7.85286 -13.0091 0 
766 1 8.97894 -12.9859 0 
768 1 10.1052 -12.9643 0 
770 1 11.2318 -12.9446 0 
772 1 12.3589 -12.9263 0 
774 1 13.4862 -12.9094 0 
776 1 14.6138 -12.8941 0 
778 1 15.7418 -12.8798 0 
780 1 16.8698 -12.8666 0 
782 1 17.9981 -12.8546 0 
784 1 19.1264 -12.8435 0 
786 1 20.2548 -12.8335 0 
788 1 21.3834 -12.824 0 
790 1 22.5123 -12.8153 0 
792 1 23.6414 -12.8072 0 
794 1 24.7706 -12.7995 0 
796 2 25.9 -12.7934 0 
798 2 27.0306 -12.7893 0 
800 2 28.1612 -12.7854 0 
901 2 -27.7557 -11.5099 0 
903 2 -26.6279 -11.4735 0 
905 2 -25.4997 -11.4364 0 
907 2 -24.3713 -11.3985 0 
909 1 -23.2407 -11.3562 0 
911 1 -22.11 -11.3127 0 
913 1 -20.979 -11.2682 0 
915 1 -19.8476 -11.2223 0 
917 1 -18.7158 -11.1748 0 
820 1 -16.9881 -12.0724 0 
919 1 -17.5838 -11.1257 0 
822 1 -15.8559 -12.0215 0 
921 1 -16.4516 -11.0751 0 
824 1 -14.7238 -11.9693 0 
923 1 -15.3191 -11.0229 0 
826 1 -13.5919 -11.9156 0 
828 1 -12.4602 -11.8606 0 
830 1 -11.3292 -11.8044 0 
832 1 -10.1989 -11.7469 0 
834 1 -9.06943 -11.6887 0 
836 1 -7.94094 -11.6298 0 
838 1 -6.81335 -11.5707 0 
840 1 -5.68699 -11.512 0 
842 1 -4.56146 -11.4545 0 
844 1 -3.43697 -11.399 0 
846 1 -2.31301 -11.3464 0 
848 1 -1.18937 -11.297 0 
850 1 -0.0657165 -11.2515 0 
852 1 1.05835 -11.2097 0 
855 1 2.76826 -12.1475 0 
854 1 2.18285 -11.1714 0 
857 1 3.89314 -12.114 0 
856 1 3.30796 -11.1367 0 
859 1 5.01837 -12.0832 0 
858 1 4.43358 -11.1048 0 
861 1 6.14398 -12.0553 0 
860 1 5.5597 -11.076 0 
863 1 7.27005 -12.0293 0 
862 1 6.68622 -11.0496 0 
865 1 8.39647 -12.0055 0 
864 1 7.81326 -11.0251 0 
867 1 9.52326 -11.9836 0 
869 1 10.6504 -11.9633 0 
871 1 11.7779 -11.945 0 
873 1 12.9057 -11.9279 0 
875 1 14.0337 -11.9121 0 
877 1 15.1621 -11.898 0 
879 1 16.2907 -11.8845 0 
881 1 17.4194 -11.8723 0 
883 1 18.5482 -11.8611 0 
885 1 19.6771 -11.851 0 
887 1 20.8063 -11.8417 0 
889 1 21.9356 -11.8331 0 
891 1 23.0651 -11.8251 0 
893 1 24.1945 -11.8176 0 
895 2 25.3239 -11.8103 0 
897 2 26.4549 -11.8064 0 
899 2 27.586 -11.8028 0 
902 2 -27.2202 -10.5209 0 
904 2 -26.0925 -10.4842 0 
906 2 -24.9646 -10.4468 0 
908 1 -23.8353 -10.4068 0 
910 1 -22.7052 -10.364 0 
912 1 -21.5747 -10.3202 0 
914 1 -20.4437 -10.2749 0 
916 1 -19.3123 -10.2281 0 
918 1 -18.1806 -10.1796 0 
920 1 -17.0486 -10.1293 0 
922 1 -15.9161 -10.0775 0 
924 1 -14.7835 -10.0236 0 
925 1 -14.1868 -10.969 0 
926 1 -13.6507 -9.96805 0 
927 1 -13.0544 -10.9136 0 
928 1 -12.5182 -9.91046 0 
929 1 -11.9226 -10.8564 0 
930 1 -11.386 -9.85116 0 
931 1 -10.7914 -10.798 0 
933 1 -9.66082 -10.7382 0 
935 1 -8.53131 -10.6775 0 
937 1 -7.40271 -10.6163 0 
939 1 -6.27543 -10.5549 0 
941 1 -5.14925 -10.4947 0 
943 1 -4.02414 -10.4356 0 
945 1 -2.89987 -10.3798 0 
947 1 -1.77606 -10.3274 0 
949 1 -0.652282 -10.279 0 
951 1 0.471834 -10.2354 0 
953 1 1.59662 -10.1953 0 
955 1 2.72204 -10.1593 0 
957 1 3.84801 -10.1265 0 
959 1 4.97464 -10.0967 0 
961 1 6.10181 -10.0697 0 
963 1 7.22938 -10.0447 0 
965 1 8.35744 -10.0219 0 
866 1 8.94066 -11.0028 0 
967 1 9.48579 -10.0009 0 
868 1 10.0684 -10.9821 0 
969 1 10.6146 -9.98174 0 
870 1 11.1965 -10.9634 0 
971 1 11.7437 -9.96413 0 
872 1 12.3249 -10.9461 0 
973 1 12.873 -9.9482 0 
874 1 13.4536 -10.9302 0 
975 1 14.0025 -9.93353 0 
876 1 14.5824 -10.9158 0 
977 1 15.132 -9.91999 0 
878 1 15.7114 -10.9024 0 
979 1 16.2617 -9.90754 0 
880 1 16.8405 -10.89 0 
981 1 17.3917 -9.8963 0 
882 1 17.97 -10.8787 0 
983 1 18.5218 -9.88592 0 
884 1 19.0995 -10.8684 0 
985 1 19.6519 -9.87656 0 
886 1 20.2292 -10.8592 0 
987 1 20.7821 -9.86809 0 
888 1 21.3589 -10.8506 0 
890 1 22.4887 -10.8429 0 
989 1 21.9124 -9.86033 0 
892 1 23.6186 -10.8355 0 
991 1 23.0427 -9.85329 0 
894 1 24.7487 -10.8286 0 
993 1 24.1733 -9.84663 0 
896 2 25.8793 -10.8234 0 
995 2 25.3037 -9.84035 0 
898 2 27.0108 -10.8201 0 
997 2 26.4357 -9.83726 0 
900 2 28.1423 -10.817 0 
999 2 27.5677 -9.8344 0 
1001 2 -27.8125 -9.56805 0 
1003 2 -26.6854 -9.5318 0 
1005 2 -25.5581 -9.49477 0 
1007 2 -24.4305 -9.45693 0 
1009 1 -23.3009 -9.41507 0 
1011 1 -22.1708 -9.37202 0 
1013 1 -21.0405 -9.32759 0 
1015 1 -19.9098 -9.28146 0 
1017 1 -18.7785 -9.23363 0 
1019 1 -17.6467 -9.1841 0 
1021 1 -16.5145 -9.13263 0 
1023 1 -15.382 -9.07924 0 
1025 1 -14.249 -9.02391 0 
1027 1 -13.1161 -8.96612 0 
1029 1 -11.9833 -8.90645 0 
932 1 -10.2545 -9.79025 0 
1031 1 -10.8508 -8.8446 0 
934 1 -9.12368 -9.72766 0 
1033 1 -9.71881 -8.78078 0 
936 1 -7.99394 -9.66443 0 
1035 1 -8.58777 -8.7154 0 
938 1 -6.86559 -9.60036 0 
940 1 -5.73858 -9.5369 0 
942 1 -4.61295 -9.47452 0 
944 1 -3.48817 -9.41469 0 
946 1 -2.36407 -9.35875 0 
948 1 -1.24025 -9.30743 0 
950 1 -0.115861 -9.26114 0 
952 1 1.00897 -9.21949 0 
954 1 2.1347 -9.18192 0 
956 1 3.26119 -9.14813 0 
958 1 4.38834 -9.11742 0 
960 1 5.51624 -9.08966 0 
962 1 6.64462 -9.06425 0 
964 1 7.77352 -9.04096 0 
966 1 8.9026 -9.01959 0 
968 1 10.0321 -9.00015 0 
970 1 11.1618 -8.98223 0 
972 1 12.292 -8.96604 0 
974 1 13.4222 -8.95123 0 
976 1 14.5524 -8.9375 0 
978 1 15.6827 -8.92493 0 
980 1 16.8132 -8.91361 0 
982 1 17.9439 -8.9033 0 
984 1 19.0747 -8.89393 0 
986 1 20.2055 -8.88552 0 
988 1 21.3363 -8.87773 0 
990 1 22.4671 -8.87079 0 
992 1 23.598 -8.8646 0 
994 1 24.7292 -8.85857 0 
996 2 25.8608 -8.85435 0 
998 2 26.9933 -8.85174 0 
1000 2 28.1257 -8.84931 0 
1002 2 -27.2783 -8.57905 0 
1101 2 -27.8711 -7.62598 0 
1004 2 -26.1516 -8.54247 0 
1103 2 -26.7449 -7.58983 0 
1006 2 -25.0246 -8.50509 0 
1105 2 -25.6186 -7.5529 0 
1008 1 -23.8963 -8.46549 0 
1107 2 -24.492 -7.51516 0 
1010 1 -22.7673 -8.42337 0 
1012 1 -21.6377 -8.37984 0 
1014 1 -20.5077 -8.33471 0 
1016 1 -19.3771 -8.28769 0 
1018 1 -18.2459 -8.23901 0 
1020 1 -17.1143 -8.18831 0 
1022 1 -15.9821 -8.13556 0 
1024 1 -14.8494 -8.08085 0 
1026 1 -13.7165 -8.02334 0 
1028 1 -12.5832 -7.96358 0 
1030 1 -11.4499 -7.90131 0 
1032 1 -10.3168 -7.83662 0 
1034 1 -9.1844 -7.76952 0 
1036 1 -8.05325 -7.70036 0 
1037 1 -7.45813 -8.6487 0 
1038 1 -6.92349 -7.63034 0 
1039 1 -6.32987 -8.58188 0 
1041 1 -5.20316 -8.51571 0 
1043 1 -4.07782 -8.45165 0 
1045 1 -2.95347 -8.39153 0 
1047 1 -1.8295 -8.33641 0 
1049 1 -0.705079 -8.28752 0 
1051 1 0.420088 -8.24352 0 
1053 1 1.54613 -8.20458 0 
1055 1 2.67321 -8.16961 0 
1057 1 3.80113 -8.13814 0 
1059 1 4.92976 -8.10972 0 
1061 1 6.05898 -8.08367 0 
1063 1 7.18869 -8.05999 0 
1065 1 8.31876 -8.03831 0 
1067 1 9.44924 -8.01861 0 
1069 1 10.5799 -8.00043 0 
1071 1 11.7108 -7.9839 0 
1073 1 12.8417 -7.96882 0 
1075 1 13.9728 -7.95496 0 
1077 1 15.1039 -7.94226 0 
1079 1 16.235 -7.93093 0 
1081 1 17.3661 -7.92051 0 
1083 1 18.4974 -7.91104 0 
1085 1 19.6288 -7.9027 0 
1087 1 20.7603 -7.89512 0 
1089 1 21.8918 -7.88824 0 
1091 1 23.0232 -7.88216 0 
1093 1 24.1545 -7.87662 0 
1095 2 25.2861 -7.87134 0 
1097 2 26.419 -7.86899 0 
1099 2 27.5519 -7.8668 0 
1102 2 -27.3381 -6.63684 0 
1104 2 -26.2124 -6.60035 0 
1106 2 -25.0865 -6.56307 0 
1108 1 -23.9597 -6.52396 0 
1109 1 -23.3637 -7.47408 0 
1110 1 -22.8322 -6.48259 0 
1111 1 -22.235 -7.43154 0 
1112 1 -21.7039 -6.43967 0 
1113 1 -21.1058 -7.38748 0 
1114 1 -20.5752 -6.39487 0 
1115 1 -19.9761 -7.34154 0 
1116 1 -19.446 -6.34817 0 
1117 1 -18.8458 -7.29383 0 
1119 1 -17.7149 -7.24404 0 
1121 1 -16.5835 -7.19219 0 
1123 1 -15.4515 -7.13827 0 
1125 1 -14.319 -7.08169 0 
1127 1 -13.1858 -7.02238 0 
1129 1 -12.0521 -6.96018 0 
1131 1 -10.9183 -6.89503 0 
1133 1 -9.78466 -6.82704 0 
1135 1 -8.6518 -6.75586 0 
1137 1 -7.5201 -6.68271 0 
1139 1 -6.39046 -6.6084 0 
1040 1 -5.79544 -7.56016 0 
1141 1 -5.26303 -6.53429 0 
1042 1 -4.66923 -7.49125 0 
1143 1 -4.13763 -6.46298 0 
1044 1 -3.54451 -7.42597 0 
1046 1 -2.42037 -7.36641 0 
1048 1 -1.29587 -7.31387 0 
1050 1 -0.170652 -7.26775 0 
1052 1 0.955873 -7.22692 0 
1054 1 2.08352 -7.19091 0 
1056 1 3.21233 -7.15868 0 
1058 1 4.34196 -7.1296 0 
1060 1 5.47218 -7.10321 0 
1062 1 6.60307 -7.07911 0 
1064 1 7.73429 -7.05712 0 
1066 1 8.86569 -7.03707 0 
1068 1 9.99728 -7.01868 0 
1070 1 11.129 -7.00188 0 
1072 1 12.2608 -6.98638 0 
1074 1 13.3927 -6.97248 0 
1076 1 14.5246 -6.95957 0 
1078 1 15.6566 -6.94806 0 
1080 1 16.7883 -6.93765 0 
1082 1 17.9201 -6.92822 0 
1084 1 19.0522 -6.9197 0 
1086 1 20.1844 -6.91222 0 
1088 1 21.3164 -6.90552 0 
1090 1 22.4484 -6.8995 0 
1092 1 23.5804 -6.89427 0 
1094 1 24.7125 -6.88942 0 
1096 2 25.8451 -6.88616 0 
1098 2 26.9784 -6.88422 0 
1100 2 28.1116 -6.88241 0 
1201 2 -27.9311 -5.68349 0 
1203 2 -26.806 -5.64742 0 