ITEM: TIMESTEP
4200
ITEM: NUMBER OF ATOMS
2850
ITEM: BOX BOUNDS ff ff pp
-42.092 42.092
-42.092 42.092
-0.280613 0.280613
ITEM: ATOMS id type xu yu zu 
1 2 -27.3398 -28.9988 0 
3 2 -26.2107 -28.9642 0 
5 2 -25.0816 -28.9291 0 
7 2 -23.9525 -28.8936 0 
9 2 -22.8235 -28.8577 0 
11 2 -21.6944 -28.8213 0 
13 2 -20.5655 -28.7844 0 
15 2 -19.4366 -28.7472 0 
17 2 -18.3079 -28.7095 0 
19 2 -17.1793 -28.6715 0 
21 2 -16.0508 -28.6331 0 
23 2 -14.9226 -28.5944 0 
25 2 -13.7947 -28.5554 0 
27 2 -12.667 -28.5163 0 
29 2 -11.5396 -28.477 0 
31 2 -10.4126 -28.4376 0 
33 2 -9.28592 -28.3982 0 
35 2 -8.15967 -28.3589 0 
37 2 -7.03386 -28.3198 0 
39 2 -5.90848 -28.281 0 
2 2 -26.7941 -28.0086 0 
4 2 -25.6649 -27.9736 0 
6 2 -24.5357 -27.9381 0 
8 2 -23.4065 -27.902 0 
10 2 -22.2773 -27.8656 0 
12 2 -21.1481 -27.8286 0 
14 2 -20.019 -27.7912 0 
16 2 -18.89 -27.7533 0 
18 2 -17.7611 -27.715 0 
20 2 -16.6324 -27.6763 0 
22 2 -15.5039 -27.6373 0 
24 2 -14.3755 -27.5979 0 
26 2 -13.2475 -27.5582 0 
28 2 -12.1197 -27.5183 0 
30 2 -10.9923 -27.4783 0 
32 2 -9.86522 -27.4382 0 
34 2 -8.73856 -27.3981 0 
36 2 -7.61233 -27.3581 0 
38 2 -6.48656 -27.3184 0 
40 2 -5.36126 -27.2789 0 
41 2 -4.78357 -28.2426 0 
42 2 -4.23645 -27.24 0 
43 2 -3.65912 -28.2046 0 
44 2 -3.11213 -27.2015 0 
45 2 -2.53513 -28.1673 0 
46 2 -1.98828 -27.1638 0 
47 2 -1.41159 -28.1307 0 
48 2 -0.8649 -27.1269 0 
49 2 -0.288464 -28.095 0 
51 2 0.834263 -28.0602 0 
53 2 1.95663 -28.0264 0 
55 2 3.07869 -27.9937 0 
57 2 4.20048 -27.9622 0 
59 2 5.32207 -27.9319 0 
61 2 6.4435 -27.9029 0 
63 2 7.56483 -27.8752 0 
65 2 8.68613 -27.8488 0 
67 2 9.80743 -27.8237 0 
69 2 10.9288 -27.8 0 
71 2 12.0503 -27.7775 0 
73 2 13.1719 -27.7563 0 
75 2 14.2937 -27.7363 0 
77 2 15.4157 -27.7174 0 
79 2 16.538 -27.6997 0 
81 2 17.6605 -27.683 0 
83 2 18.7832 -27.6673 0 
85 2 19.9063 -27.6526 0 
87 2 21.0296 -27.6388 0 
89 2 22.1532 -27.6258 0 
91 2 23.2771 -27.6136 0 
93 2 24.4012 -27.6022 0 
95 2 25.5256 -27.5914 0 
97 2 26.6503 -27.5812 0 
99 2 27.7752 -27.5717 0 
101 2 -27.378 -27.0533 0 
103 2 -26.2487 -27.0183 0 
102 2 -26.833 -26.0633 0 
105 2 -25.1194 -26.9828 0 
104 2 -25.7037 -26.0278 0 
107 2 -23.9901 -26.9468 0 
106 2 -24.5742 -25.9918 0 
109 2 -22.8607 -26.9102 0 
108 1 -23.4445 -25.9549 0 
111 2 -21.7314 -26.8732 0 
113 2 -20.6021 -26.8357 0 
115 2 -19.4729 -26.7977 0 
117 2 -18.3437 -26.7591 0 
119 2 -17.2147 -26.7202 0 
121 2 -16.0858 -26.6808 0 
123 2 -14.9572 -26.641 0 
125 2 -13.8287 -26.6009 0 
127 2 -12.7006 -26.5605 0 
129 2 -11.5727 -26.5198 0 
131 2 -10.4452 -26.479 0 
133 2 -9.31813 -26.4382 0 
135 2 -8.19146 -26.3973 0 
137 2 -7.06526 -26.3566 0 
139 2 -5.93954 -26.3162 0 
141 2 -4.81433 -26.2762 0 
143 2 -3.68963 -26.2366 0 
145 2 -2.56545 -26.1977 0 
147 2 -1.44177 -26.1596 0 
50 2 0.258046 -27.0909 0 
149 2 -0.318563 -26.1224 0 
52 2 1.38059 -27.056 0 
151 2 0.804196 -26.0862 0 
54 2 2.50279 -27.0222 0 
153 2 1.92656 -26.0512 0 
56 2 3.62468 -26.9896 0 
155 2 3.04857 -26.0174 0 
58 2 4.74633 -26.9582 0 
157 2 4.1703 -25.9849 0 
60 2 5.86779 -26.9282 0 
159 2 5.2918 -25.9538 0 
62 2 6.98913 -26.8996 0 
64 2 8.11041 -26.8723 0 
66 2 9.23169 -26.8465 0 
68 2 10.353 -26.822 0 
70 2 11.4745 -26.7989 0 
72 2 12.596 -26.7771 0 
74 2 13.7178 -26.7566 0 
76 2 14.8398 -26.7373 0 
78 2 15.962 -26.7192 0 
80 2 17.0845 -26.7023 0 
82 2 18.2073 -26.6863 0 
84 2 19.3304 -26.6714 0 
86 2 20.4538 -26.6575 0 
88 2 21.5774 -26.6444 0 
90 2 22.7014 -26.6321 0 
92 2 23.8256 -26.6206 0 
94 2 24.9501 -26.6098 0 
96 2 26.0749 -26.5996 0 
98 2 27.2 -26.5901 0 
100 2 28.3253 -26.5811 0 
201 2 -27.4179 -25.1085 0 
203 2 -26.2885 -25.0731 0 
205 2 -25.159 -25.0372 0 
207 2 -24.0295 -25.0007 0 
209 1 -22.8993 -24.9628 0 
110 1 -22.3148 -25.9177 0 
211 1 -21.7694 -24.9245 0 
112 1 -21.1851 -25.8796 0 
213 1 -20.6394 -24.8858 0 
114 1 -20.0556 -25.8414 0 
215 1 -19.5098 -24.8466 0 
116 1 -18.9264 -25.8026 0 
217 1 -18.3804 -24.8069 0 
118 1 -17.7972 -25.7631 0 
120 1 -16.6682 -25.7235 0 
122 1 -15.5394 -25.6832 0 
124 1 -14.4109 -25.6429 0 
126 1 -13.2827 -25.6019 0 
128 1 -12.1546 -25.5606 0 
130 1 -11.0271 -25.5192 0 
132 1 -9.89986 -25.4776 0 
134 1 -8.77315 -25.436 0 
136 1 -7.64694 -25.3946 0 
138 1 -6.52109 -25.3532 0 
140 1 -5.39576 -25.3121 0 
142 1 -4.27098 -25.2718 0 
144 1 -3.14679 -25.2318 0 
146 1 -2.02309 -25.1925 0 
148 1 -0.899728 -25.1541 0 
150 1 0.223318 -25.1171 0 
152 1 1.34586 -25.0808 0 
154 1 2.46807 -25.0461 0 
156 1 3.59004 -25.0127 0 
158 1 4.7119 -24.9809 0 
160 1 5.83363 -24.95 0 
161 2 6.41316 -25.9242 0 
162 1 6.95525 -24.9211 0 
163 2 7.53443 -25.896 0 
164 1 8.07694 -24.8937 0 
165 2 8.65568 -25.8693 0 
167 2 9.77697 -25.844 0 
166 1 9.19867 -24.8678 0 
169 2 10.8984 -25.8202 0 
168 1 10.3203 -24.8434 0 
171 2 12.0199 -25.7978 0 
170 1 11.4424 -24.8205 0 
173 2 13.1416 -25.7768 0 
175 2 14.2636 -25.7571 0 
177 2 15.3858 -25.7386 0 
179 2 16.5083 -25.7213 0 
181 2 17.6311 -25.7052 0 
183 2 18.7543 -25.6901 0 
185 2 19.8777 -25.6759 0 
187 2 21.0014 -25.6627 0 
189 2 22.1254 -25.6504 0 
191 2 23.2498 -25.6388 0 
193 2 24.3744 -25.628 0 
195 2 25.4993 -25.6179 0 
197 2 26.6245 -25.6084 0 
199 2 27.75 -25.5994 0 
202 2 -26.8739 -24.1187 0 
204 2 -25.7444 -24.0828 0 
206 2 -24.6148 -24.0464 0 
208 1 -23.4846 -24.0087 0 
210 1 -22.3544 -23.9701 0 
212 1 -21.2242 -23.931 0 
214 1 -20.0943 -23.8915 0 
216 1 -18.9646 -23.8514 0 
219 1 -17.2513 -24.7668 0 
218 1 -17.8352 -23.8108 0 
221 1 -16.1223 -24.7263 0 
220 1 -16.706 -23.77 0 
222 1 -15.5771 -23.7284 0 
223 1 -14.9934 -24.6852 0 
224 1 -14.4484 -23.6865 0 
225 1 -13.8651 -24.644 0 
227 1 -12.737 -24.6021 0 
229 1 -11.6094 -24.5599 0 
231 1 -10.482 -24.5179 0 
233 1 -9.35503 -24.4753 0 
235 1 -8.22868 -24.433 0 
237 1 -7.10286 -24.3909 0 
239 1 -5.97742 -24.3487 0 
241 1 -4.85235 -24.3074 0 
243 1 -3.72797 -24.2664 0 
245 1 -2.60422 -24.226 0 
247 1 -1.48074 -24.1865 0 
249 1 -0.357543 -24.1483 0 
251 1 0.76506 -24.111 0 
253 1 1.88754 -24.0751 0 
255 1 3.00977 -24.0406 0 
257 1 4.13176 -24.0079 0 
259 1 5.25367 -23.9765 0 
261 1 6.37571 -23.9465 0 
263 1 7.49774 -23.9184 0 
265 1 8.61977 -23.8918 0 
267 1 9.74194 -23.8666 0 
269 1 10.8644 -23.8432 0 
271 1 11.987 -23.8209 0 
172 1 12.5646 -24.7987 0 
273 1 13.1096 -23.8002 0 
174 1 13.6869 -24.7787 0 
275 1 14.2324 -23.7809 0 
176 1 14.8094 -24.7598 0 
277 1 15.3553 -23.7627 0 
178 1 15.9321 -24.742 0 
279 1 16.4787 -23.7458 0 
180 1 17.0552 -24.7255 0 
281 1 17.6022 -23.7299 0 
182 1 18.1784 -24.71 0 
283 1 18.726 -23.7152 0 
184 1 19.302 -24.6956 0 
285 1 19.8499 -23.7014 0 
186 1 20.4258 -24.6822 0 
287 1 20.9742 -23.6887 0 
188 1 21.55 -24.6696 0 
289 1 22.0987 -23.6767 0 
190 1 22.6746 -24.6578 0 
291 1 23.2234 -23.6653 0 
192 1 23.7993 -24.6466 0 
293 1 24.3483 -23.6546 0 
194 1 24.9241 -24.6363 0 
295 2 25.4729 -23.6443 0 
196 2 26.0488 -24.6264 0 
198 2 27.1745 -24.6176 0 
200 2 28.3003 -24.6093 0 
301 2 -27.4598 -23.1644 0 
303 2 -26.3303 -23.1287 0 
305 2 -25.2007 -23.0924 0 
307 2 -24.071 -23.0555 0 
309 1 -22.9402 -23.0164 0 
311 1 -21.8099 -22.9769 0 
313 1 -20.6796 -22.9371 0 
315 1 -19.5496 -22.8967 0 
317 1 -18.4197 -22.8557 0 
319 1 -17.29 -22.8141 0 
321 1 -16.1609 -22.7722 0 
323 1 -15.0321 -22.7299 0 
226 1 -13.32 -23.6443 0 
325 1 -13.9035 -22.687 0 
327 1 -12.7755 -22.6437 0 
228 1 -12.1921 -23.6014 0 
329 1 -11.6475 -22.6002 0 
230 1 -11.0645 -23.5587 0 
331 1 -10.5203 -22.5563 0 
232 1 -9.9376 -23.5155 0 
333 1 -9.39351 -22.5122 0 
234 1 -8.81093 -23.4721 0 
236 1 -7.68489 -23.4291 0 
238 1 -6.55934 -23.3862 0 
240 1 -5.43413 -23.3436 0 
242 1 -4.30948 -23.3016 0 
244 1 -3.18544 -23.2601 0 
246 1 -2.06186 -23.2196 0 
248 1 -0.93858 -23.18 0 
250 1 0.184293 -23.1416 0 
252 1 1.30683 -23.1046 0 
254 1 2.42928 -23.069 0 
256 1 3.55163 -23.0349 0 
258 1 4.67374 -23.0029 0 
260 1 5.79593 -22.9722 0 
262 1 6.91829 -22.9433 0 
264 1 8.04058 -22.9159 0 
266 1 9.16299 -22.89 0 
268 1 10.2857 -22.866 0 
270 1 11.4087 -22.8432 0 
272 1 12.5318 -22.8218 0 
274 1 13.6548 -22.802 0 
276 1 14.7781 -22.7834 0 
278 1 15.9017 -22.7662 0 
280 1 17.0256 -22.7499 0 
282 1 18.1495 -22.7347 0 
284 1 19.2736 -22.7206 0 
286 1 20.398 -22.7077 0 
288 1 21.5225 -22.6954 0 
290 1 22.6472 -22.6839 0 
292 1 23.7722 -22.6731 0 
294 1 24.8973 -22.6626 0 
297 2 26.5987 -23.6355 0 
296 2 26.0228 -22.6533 0 
299 2 27.7248 -23.6273 0 
298 2 27.149 -22.6452 0 
300 2 28.2755 -22.6376 0 
302 2 -26.9167 -22.1747 0 
304 2 -25.7871 -22.1385 0 
306 2 -24.6574 -22.1018 0 
308 1 -23.5269 -22.0635 0 
310 1 -22.3965 -22.0236 0 
312 1 -21.2659 -21.9834 0 
314 1 -20.1356 -21.9426 0 
316 1 -19.0055 -21.9014 0 
318 1 -17.8755 -21.8595 0 
320 1 -16.7458 -21.8168 0 
322 1 -15.6165 -21.7739 0 
324 1 -14.4878 -21.7306 0 
326 1 -13.3594 -21.6866 0 
328 1 -12.2313 -21.6426 0 
330 1 -11.1036 -21.5978 0 
332 1 -9.9765 -21.5531 0 
334 1 -8.84988 -21.5082 0 
335 1 -8.26717 -22.4681 0 
336 1 -7.72373 -21.4634 0 
337 1 -7.1413 -22.4243 0 
338 1 -6.59795 -21.4186 0 
339 1 -6.01589 -22.3806 0 
340 1 -5.47279 -21.3741 0 
341 1 -4.89107 -22.3375 0 
343 1 -3.76683 -22.2949 0 
345 1 -2.64289 -22.253 0 
347 1 -1.51951 -22.2122 0 
349 1 -0.396658 -22.1727 0 
351 1 0.726019 -22.1345 0 
353 1 1.84857 -22.0978 0 
355 1 2.97098 -22.0626 0 
357 1 4.09352 -22.0293 0 
359 1 5.21596 -21.998 0 
361 1 6.33849 -21.9682 0 
363 1 7.46101 -21.94 0 
365 1 8.58373 -21.9136 0 
367 1 9.70682 -21.8887 0 
369 1 10.8299 -21.8656 0 
371 1 11.9531 -21.8435 0 
373 1 13.0765 -21.8231 0 
375 1 14.2 -21.8042 0 
377 1 15.3239 -21.7865 0 
379 1 16.448 -21.7699 0 
381 1 17.5723 -21.7543 0 
383 1 18.6968 -21.7398 0 
385 1 19.8213 -21.7266 0 
387 1 20.9459 -21.7141 0 
389 1 22.0708 -21.7024 0 
391 1 23.1959 -21.6915 0 
393 1 24.3212 -21.681 0 
395 2 25.4466 -21.6709 0 
397 2 26.573 -21.6629 0 
399 2 27.6998 -21.6554 0 
401 2 -27.5037 -21.2208 0 
403 2 -26.3741 -21.1849 0 
402 2 -26.9617 -20.2313 0 
405 2 -25.2445 -21.1483 0 
404 2 -25.8321 -20.1949 0 
407 2 -24.1147 -21.111 0 
409 1 -22.9837 -21.0709 0 
411 1 -21.8529 -21.0305 0 
413 1 -20.7223 -20.9893 0 
415 1 -19.5919 -20.9477 0 
417 1 -18.4616 -20.9055 0 
419 1 -17.3317 -20.8626 0 
421 1 -16.2019 -20.819 0 
423 1 -15.0726 -20.7751 0 
425 1 -13.9438 -20.7305 0 
427 1 -12.8152 -20.6857 0 
429 1 -11.6873 -20.6404 0 
431 1 -10.5598 -20.5949 0 
433 1 -9.43275 -20.549 0 
435 1 -8.3063 -20.5031 0 
437 1 -7.18047 -20.4575 0 
439 1 -6.05514 -20.4117 0 
342 1 -4.34823 -21.3304 0 
441 1 -4.93014 -20.3667 0 
344 1 -3.22423 -21.2873 0 
443 1 -3.80581 -20.3223 0 
346 1 -2.10062 -21.2451 0 
445 1 -2.682 -20.2787 0 
348 1 -0.97742 -21.2041 0 
447 1 -1.55856 -20.2364 0 
350 1 0.145321 -21.1647 0 
352 1 1.26796 -21.1268 0 
354 1 2.39054 -21.0906 0 
356 1 3.5132 -21.0563 0 
358 1 4.63592 -21.0237 0 
360 1 5.75865 -20.9931 0 
362 1 6.88132 -20.9641 0 
364 1 8.00414 -20.937 0 
366 1 9.12724 -20.9117 0 
368 1 10.2507 -20.8878 0 
370 1 11.3743 -20.8654 0 
372 1 12.498 -20.8443 0 
374 1 13.6218 -20.8248 0 
376 1 14.7458 -20.8068 0 
378 1 15.8701 -20.7898 0 
380 1 16.9945 -20.774 0 
382 1 18.1193 -20.7592 0 
384 1 19.2441 -20.7454 0 
386 1 20.3692 -20.7328 0 
388 1 21.4943 -20.7208 0 
390 1 22.6195 -20.7097 0 
392 1 23.745 -20.6994 0 
394 1 24.8708 -20.6892 0 
396 2 25.9969 -20.6804 0 
398 2 27.1238 -20.673 0 
400 2 28.251 -20.6661 0 
501 2 -27.5497 -19.2779 0 
503 2 -26.4202 -19.2417 0 
505 2 -25.2906 -19.2049 0 
406 2 -24.7023 -20.1579 0 
507 2 -24.1608 -19.1673 0 
408 1 -23.5716 -20.1187 0 
509 1 -23.0293 -19.1263 0 
410 1 -22.4406 -20.0781 0 
511 1 -21.8982 -19.0847 0 
412 1 -21.3098 -20.0367 0 
513 1 -20.7673 -19.0426 0 
414 1 -20.179 -19.9948 0 
416 1 -19.0484 -19.9521 0 
418 1 -17.9183 -19.9089 0 
420 1 -16.7884 -19.8652 0 
422 1 -15.6587 -19.8206 0 
424 1 -14.5294 -19.7755 0 
426 1 -13.4004 -19.7301 0 
428 1 -12.2718 -19.6839 0 
430 1 -11.1439 -19.6376 0 
432 1 -10.0164 -19.5909 0 
434 1 -8.88947 -19.5438 0 
436 1 -7.76311 -19.4971 0 
438 1 -6.6375 -19.4503 0 
440 1 -5.51225 -19.404 0 
442 1 -4.38766 -19.358 0 
444 1 -3.26365 -19.3131 0 
446 1 -2.13996 -19.2694 0 
448 1 -1.0167 -19.227 0 
449 1 -0.435523 -20.1955 0 
450 1 0.106128 -19.1863 0 
451 1 0.687247 -20.1563 0 
452 1 1.22887 -19.1477 0 
453 1 1.8101 -20.1189 0 
454 1 2.35179 -19.1108 0 
455 1 2.93277 -20.0834 0 
456 1 3.47469 -19.076 0 
457 1 4.05536 -20.0498 0 
459 1 5.17827 -20.0181 0 
461 1 6.30126 -19.9883 0 
463 1 7.42431 -19.9604 0 
465 1 8.54769 -19.9343 0 
467 1 9.67111 -19.9101 0 
469 1 10.7948 -19.8871 0 
471 1 11.9188 -19.8655 0 
473 1 13.043 -19.8454 0 
475 1 14.1674 -19.827 0 
477 1 15.2919 -19.8097 0 
479 1 16.4165 -19.7935 0 
481 1 17.5414 -19.7786 0 
483 1 18.6665 -19.7644 0 
485 1 19.7918 -19.7514 0 
487 1 20.9173 -19.7393 0 
489 1 22.0429 -19.7279 0 
491 1 23.1686 -19.7175 0 
493 1 24.2945 -19.7074 0 
495 2 25.4205 -19.6978 0 
497 2 26.5477 -19.6905 0 
499 2 27.6751 -19.6838 0 
502 2 -27.0088 -18.2886 0 
504 2 -25.8793 -18.252 0 
506 2 -24.7497 -18.2147 0 
508 1 -23.6188 -18.1751 0 
510 1 -22.4877 -18.1335 0 
512 1 -21.3564 -18.0911 0 
514 1 -20.2254 -18.0482 0 
515 1 -19.6365 -18.9999 0 
516 1 -19.0945 -18.0044 0 
517 1 -18.5057 -18.956 0 
518 1 -17.9636 -17.9598 0 
519 1 -17.3754 -18.912 0 
520 1 -16.833 -17.9146 0 
521 1 -16.2453 -18.8672 0 
523 1 -15.1157 -18.8214 0 
525 1 -13.9863 -18.7753 0 
527 1 -12.8573 -18.7287 0 
529 1 -11.7287 -18.6813 0 
531 1 -10.6007 -18.6338 0 
533 1 -9.47345 -18.5858 0 
535 1 -8.34655 -18.5378 0 
537 1 -7.22034 -18.4898 0 
539 1 -6.09482 -18.4422 0 
541 1 -4.97012 -18.3948 0 
543 1 -3.8459 -18.3482 0 
545 1 -2.72199 -18.303 0 
547 1 -1.59856 -18.2592 0 
549 1 -0.475511 -18.2169 0 
551 1 0.647411 -18.1766 0 
553 1 1.7703 -18.1386 0 
555 1 2.89342 -18.1026 0 
557 1 4.01662 -18.0686 0 
458 1 4.59763 -19.0434 0 
559 1 5.13985 -18.0371 0 
460 1 5.72082 -19.0127 0 
561 1 6.26319 -18.0072 0 
462 1 6.84409 -18.9837 0 
563 1 7.3868 -17.9797 0 
464 1 7.96752 -18.9571 0 
565 1 8.51058 -17.9538 0 
466 1 9.09118 -18.9319 0 
567 1 9.63479 -17.9299 0 
468 1 10.215 -18.9086 0 
569 1 10.7592 -17.9077 0 
470 1 11.3391 -18.8867 0 
472 1 12.4635 -18.866 0 
474 1 13.5881 -18.8471 0 
476 1 14.7129 -18.8295 0 
478 1 15.838 -18.8129 0 
480 1 16.9632 -18.7978 0 
482 1 18.0885 -18.7833 0 
484 1 19.2141 -18.77 0 
486 1 20.3399 -18.7578 0 
488 1 21.4659 -18.7463 0 
490 1 22.5919 -18.7356 0 
492 1 23.7181 -18.7255 0 
494 1 24.8446 -18.716 0 
496 2 25.9714 -18.7078 0 
498 2 27.0991 -18.7012 0 
500 2 28.2271 -18.6951 0 
601 2 -27.5979 -17.3354 0 
603 2 -26.4686 -17.2992 0 
605 2 -25.3391 -17.2621 0 
607 2 -24.2094 -17.2244 0 
609 1 -23.0779 -17.1826 0 
611 1 -21.9467 -17.1404 0 
613 1 -20.8155 -17.0971 0 
615 1 -19.6843 -17.0533 0 
617 1 -18.5531 -17.0086 0 
619 1 -17.4221 -16.9629 0 
522 1 -15.7029 -17.8684 0 
621 1 -16.2915 -16.9165 0 
524 1 -14.5729 -17.8217 0 
623 1 -15.161 -16.8693 0 
526 1 -13.4434 -17.7743 0 
625 1 -14.0309 -16.8213 0 
528 1 -12.3144 -17.7264 0 
627 1 -12.9012 -16.7725 0 
530 1 -11.1859 -17.6779 0 
532 1 -10.058 -17.6289 0 
534 1 -8.93064 -17.5797 0 
536 1 -7.80394 -17.5305 0 
538 1 -6.67801 -17.4815 0 
540 1 -5.55294 -17.4326 0 
542 1 -4.42842 -17.3844 0 
544 1 -3.30421 -17.3376 0 
546 1 -2.18057 -17.2918 0 
548 1 -1.05736 -17.2481 0 
550 1 0.0658214 -17.2063 0 
552 1 1.18894 -17.1665 0 
554 1 2.31188 -17.1293 0 
556 1 3.43496 -17.0942 0 
558 1 4.55842 -17.0615 0 
560 1 5.68188 -17.0308 0 
562 1 6.80571 -17.0024 0 
564 1 7.92968 -16.9759 0 
566 1 9.05402 -16.9513 0 
568 1 10.1785 -16.9286 0 
571 1 11.8837 -17.8867 0 
570 1 11.3034 -16.9072 0 
573 1 13.0087 -17.8672 0 
572 1 12.4287 -16.8874 0 
575 1 14.1338 -17.8492 0 
574 1 13.5542 -16.8688 0 
577 1 15.2592 -17.8324 0 
576 1 14.6798 -16.8515 0 
579 1 16.3848 -17.8167 0 
578 1 15.8055 -16.8357 0 
581 1 17.5103 -17.8022 0 
580 1 16.9315 -16.8209 0 
583 1 18.6362 -17.7886 0 
582 1 18.0577 -16.8072 0 
585 1 19.7623 -17.7763 0 
584 1 19.1843 -16.7947 0 
587 1 20.8887 -17.7647 0 
586 1 20.311 -16.783 0 
589 1 22.015 -17.7538 0 
588 1 21.4378 -16.7721 0 
591 1 23.1415 -17.7438 0 
590 1 22.5647 -16.7619 0 
593 1 24.2682 -17.7342 0 
592 1 23.6916 -16.7524 0 
595 2 25.3948 -17.725 0 
594 1 24.8189 -16.7433 0 
596 2 25.9465 -16.7357 0 
597 2 26.5229 -17.7186 0 
598 2 27.0751 -16.7299 0 
599 2 27.6512 -17.7126 0 
600 2 28.2039 -16.7246 0 
602 2 -27.0583 -16.3463 0 
604 2 -25.929 -16.3096 0 
606 2 -24.7995 -16.2721 0 
608 1 -23.6686 -16.2321 0 
610 1 -22.5374 -16.1897 0 
612 1 -21.4063 -16.1467 0 
614 1 -20.275 -16.1028 0 
616 1 -19.1436 -16.058 0 
618 1 -18.0122 -16.0123 0 
620 1 -16.8812 -15.9653 0 
622 1 -15.7503 -15.918 0 
624 1 -14.6197 -15.8693 0 
626 1 -13.4893 -15.8201 0 
628 1 -12.3596 -15.7698 0 
629 1 -11.7721 -16.7232 0 
630 1 -11.2305 -15.7188 0 
631 1 -10.6437 -16.6732 0 
632 1 -10.1018 -15.6676 0 
633 1 -9.5157 -16.6229 0 
634 1 -8.97402 -15.6155 0 
635 1 -8.38855 -16.5723 0 
637 1 -7.26208 -16.5219 0 
639 1 -6.13645 -16.4716 0 
641 1 -5.01146 -16.4217 0 
643 1 -3.88689 -16.3732 0 
645 1 -2.76312 -16.3256 0 
647 1 -1.63961 -16.2798 0 
649 1 -0.516309 -16.2364 0 
651 1 0.606789 -16.1951 0 
653 1 1.7299 -16.1562 0 
655 1 2.85298 -16.1199 0 
657 1 3.9764 -16.0862 0 
659 1 5.10005 -16.0545 0 
661 1 6.22407 -16.0252 0 
663 1 7.34824 -15.9979 0 
665 1 8.47272 -15.9728 0 
667 1 9.59762 -15.9493 0 
669 1 10.7227 -15.9278 0 
671 1 11.8484 -15.9075 0 
673 1 12.9741 -15.8885 0 
675 1 14.1 -15.8708 0 
677 1 15.2261 -15.8545 0 
679 1 16.3525 -15.8396 0 
681 1 17.4791 -15.8259 0 
683 1 18.6059 -15.8131 0 
685 1 19.733 -15.8013 0 
687 1 20.8602 -15.7902 0 
689 1 21.9875 -15.78 0 
691 1 23.115 -15.7704 0 
693 1 24.2426 -15.7614 0 
695 2 25.3699 -15.7527 0 
697 2 26.4989 -15.7471 0 
699 2 27.6281 -15.742 0 
701 2 -27.6483 -15.3934 0 
703 2 -26.5193 -15.357 0 
705 2 -25.3901 -15.3199 0 
707 2 -24.2607 -15.282 0 
709 1 -23.1293 -15.2396 0 
711 1 -21.998 -15.1966 0 
713 1 -20.8666 -15.1529 0 
715 1 -19.7351 -15.108 0 
717 1 -18.6036 -15.0623 0 
719 1 -17.4721 -15.0154 0 
721 1 -16.3406 -14.9676 0 
723 1 -15.2096 -14.9185 0 
725 1 -14.0787 -14.8687 0 
727 1 -12.9483 -14.8179 0 
729 1 -11.8184 -14.7659 0 
731 1 -10.6892 -14.7136 0 
733 1 -9.56079 -14.6603 0 
636 1 -7.84694 -15.5637 0 
735 1 -8.43287 -14.6069 0 
638 1 -6.72069 -15.5118 0 
737 1 -7.30589 -14.5534 0 
640 1 -5.59528 -15.4602 0 
739 1 -6.17983 -14.5 0 
642 1 -4.47032 -15.4098 0 
644 1 -3.34615 -15.3603 0 
646 1 -2.22244 -15.3127 0 
648 1 -1.09896 -15.2671 0 
650 1 0.0241883 -15.2239 0 
652 1 1.14727 -15.1835 0 
654 1 2.27051 -15.1457 0 
656 1 3.39394 -15.1108 0 
658 1 4.51766 -15.0781 0 
660 1 5.64178 -15.048 0 
662 1 6.76624 -15.0199 0 
664 1 7.89101 -14.9939 0 
666 1 9.01619 -14.97 0 
668 1 10.1417 -14.9479 0 
670 1 11.2674 -14.9275 0 
672 1 12.3934 -14.9081 0 
674 1 13.5197 -14.8901 0 
676 1 14.6463 -14.8735 0 
678 1 15.7733 -14.8584 0 
680 1 16.9003 -14.8443 0 
682 1 18.0275 -14.8314 0 
684 1 19.1549 -14.8195 0 
686 1 20.2826 -14.8084 0 
688 1 21.4103 -14.798 0 
690 1 22.5381 -14.7886 0 
692 1 23.6661 -14.7795 0 
694 1 24.7942 -14.771 0 
696 2 25.9226 -14.7642 0 
698 2 27.0521 -14.7592 0 
700 2 28.1818 -14.7547 0 
702 2 -27.11 -14.4044 0 
801 2 -27.7009 -13.4516 0 
704 2 -25.9811 -14.3676 0 
803 2 -26.5724 -13.4152 0 
706 2 -24.852 -14.3301 0 
805 2 -25.4437 -13.3781 0 
708 1 -23.7215 -14.2898 0 
807 2 -24.3146 -13.3401 0 
710 1 -22.5905 -14.2469 0 
809 1 -23.1836 -13.2974 0 
712 1 -21.4591 -14.2032 0 
714 1 -20.3275 -14.1587 0 
716 1 -19.1958 -14.1129 0 
718 1 -18.0641 -14.0662 0 
720 1 -16.9323 -14.0183 0 
722 1 -15.8009 -13.9689 0 
724 1 -14.6695 -13.9186 0 
726 1 -13.5383 -13.8672 0 
728 1 -12.4078 -13.8147 0 
730 1 -11.2776 -13.7613 0 
732 1 -10.1484 -13.7067 0 
734 1 -9.01983 -13.652 0 
736 1 -7.89215 -13.5968 0 
738 1 -6.7654 -13.5416 0 
740 1 -5.63956 -13.4871 0 
741 1 -5.05448 -14.4477 0 
742 1 -4.51476 -13.4333 0 
743 1 -3.92997 -14.3962 0 
744 1 -3.39057 -13.3812 0 
745 1 -2.80595 -14.3464 0 
746 1 -2.26676 -13.3311 0 
747 1 -1.6824 -14.2987 0 
749 1 -0.559073 -14.2534 0 
751 1 0.564167 -14.2112 0 
753 1 1.68748 -14.172 0 
755 1 2.81109 -14.1354 0 
757 1 3.93502 -14.1017 0 
759 1 5.05922 -14.0705 0 
761 1 6.18375 -14.0418 0 
763 1 7.30871 -14.015 0 
765 1 8.43407 -13.9905 0 
767 1 9.56008 -13.9679 0 
769 1 10.6863 -13.947 0 
771 1 11.8126 -13.9274 0 
773 1 12.9393 -13.9093 0 
775 1 14.0663 -13.8924 0 
777 1 15.1935 -13.877 0 
779 1 16.321 -13.8627 0 
781 1 17.4487 -13.8495 0 
783 1 18.5766 -13.8375 0 
785 1 19.7045 -13.8264 0 
787 1 20.8327 -13.8161 0 
789 1 21.961 -13.8066 0 
791 1 23.0893 -13.7976 0 
793 1 24.2177 -13.7892 0 
795 2 25.3462 -13.7811 0 
797 2 26.4761 -13.7764 0 
799 2 27.6062 -13.772 0 
802 2 -27.164 -12.4626 0 
804 2 -26.0357 -12.4259 0 
806 2 -24.9071 -12.3884 0 
808 1 -23.7769 -12.348 0 
810 1 -22.6462 -12.3049 0 
811 1 -22.0523 -13.254 0 
812 1 -21.5152 -12.2609 0 
813 1 -20.9208 -13.2096 0 
814 1 -20.3837 -12.2158 0 
815 1 -19.7891 -13.1641 0 
816 1 -19.2517 -12.1695 0 
817 1 -18.6573 -13.1175 0 
818 1 -18.1197 -12.1219 0 
819 1 -17.5254 -13.0698 0 
821 1 -16.3937 -13.0203 0 
823 1 -15.2619 -12.9698 0 
825 1 -14.13 -12.918 0 
827 1 -12.9987 -12.8647 0 
829 1 -11.8679 -12.8106 0 
831 1 -10.7378 -12.755 0 
833 1 -9.60835 -12.6988 0 
835 1 -8.47974 -12.642 0 
837 1 -7.35219 -12.585 0 
839 1 -6.22563 -12.5282 0 
841 1 -5.1002 -12.472 0 
843 1 -3.9755 -12.4172 0 
845 1 -2.85154 -12.3646 0 
748 1 -1.14333 -13.2836 0 
847 1 -1.72793 -12.3146 0 
849 1 -0.60445 -12.268 0 
750 1 -0.0198956 -13.2394 0 
851 1 0.518963 -12.225 0 
752 1 1.10364 -13.1983 0 
853 1 1.64282 -12.1852 0 
754 1 2.22722 -13.1603 0 
756 1 3.35135 -13.1254 0 
758 1 4.4758 -13.093 0 
760 1 5.60063 -13.0634 0 
762 1 6.72593 -13.0362 0 
764 1 7.85167 -13.0108 0 
766 1 8.97799 -12.9879 0 
768 1 10.1046 -12.9665 0 
770 1 11.2313 -12.9466 0 
772 1 12.3586 -12.9283 0 
774 1 13.4859 -12.9111 0 
776 1 14.6135 -12.8954 0 
778 1 15.7414 -12.881 0 
780 1 16.8696 -12.8677 0 
782 1 17.9981 -12.8556 0 
784 1 19.1266 -12.8442 0 
786 1 20.2551 -12.8339 0 
788 1 21.3838 -12.8245 0 
790 1 22.5126 -12.8155 0 
792 1 23.6414 -12.8072 0 
794 1 24.7704 -12.7994 0 
796 2 25.9 -12.7934 0 
798 2 27.0306 -12.7893 0 
800 2 28.1612 -12.7854 0 
901 2 -27.7557 -11.5099 0 
903 2 -26.6279 -11.4735 0 
905 2 -25.4997 -11.4364 0 
907 2 -24.3713 -11.3985 0 
909 1 -23.2407 -11.3559 0 
911 1 -22.1098 -11.3123 0 
913 1 -20.9787 -11.2677 0 
915 1 -19.8472 -11.2219 0 
917 1 -18.7153 -11.1747 0 
820 1 -16.9878 -12.0727 0 
919 1 -17.5831 -11.1258 0 
822 1 -15.8556 -12.0221 0 
921 1 -16.4507 -11.0754 0 
824 1 -14.7234 -11.9701 0 
923 1 -15.3184 -11.0234 0 
826 1 -13.5915 -11.9164 0 
828 1 -12.4599 -11.8615 0 
830 1 -11.3289 -11.8051 0 
832 1 -10.1986 -11.7477 0 
834 1 -9.06907 -11.6893 0 
836 1 -7.94058 -11.6304 0 
838 1 -6.81316 -11.5714 0 
840 1 -5.68695 -11.5126 0 
842 1 -4.56169 -11.4551 0 
844 1 -3.4374 -11.3994 0 
846 1 -2.31369 -11.3466 0 
848 1 -1.19011 -11.2974 0 
850 1 -0.0666498 -11.252 0 
852 1 1.0572 -11.2106 0 
855 1 2.76715 -12.1491 0 
854 1 2.18175 -11.1726 0 
857 1 3.8919 -12.1156 0 
856 1 3.30681 -11.1382 0 
859 1 5.01695 -12.0849 0 
858 1 4.43236 -11.1065 0 
861 1 6.14264 -12.0572 0 
860 1 5.55854 -11.0779 0 
863 1 7.26873 -12.0312 0 
862 1 6.68498 -11.0515 0 
865 1 8.39535 -12.0077 0 
864 1 7.81214 -11.0273 0 
867 1 9.52244 -11.9859 0 
869 1 10.6497 -11.9656 0 
871 1 11.7774 -11.9471 0 
873 1 12.9052 -11.9298 0 
875 1 14.0333 -11.9138 0 
877 1 15.1618 -11.8992 0 
879 1 16.2905 -11.8858 0 
881 1 17.4194 -11.8735 0 
883 1 18.5484 -11.8621 0 
885 1 19.6773 -11.8515 0 
887 1 20.8064 -11.8421 0 
889 1 21.9356 -11.8334 0 
891 1 23.0649 -11.8251 0 
893 1 24.1943 -11.8175 0 
895 2 25.3239 -11.8103 0 
897 2 26.4549 -11.8064 0 
899 2 27.586 -11.8028 0 
902 2 -27.2202 -10.5209 0 
904 2 -26.0925 -10.4842 0 
906 2 -24.9646 -10.4468 0 
908 1 -23.8353 -10.4066 0 
910 1 -22.7051 -10.3638 0 
912 1 -21.5743 -10.3197 0 
914 1 -20.4433 -10.2744 0 
916 1 -19.3118 -10.2278 0 
918 1 -18.1799 -10.1795 0 
920 1 -17.0475 -10.1295 0 
922 1 -15.9151 -10.0776 0 
924 1 -14.7824 -10.0241 0 
925 1 -14.186 -10.9697 0 
926 1 -13.6496 -9.96871 0 
927 1 -13.0535 -10.9142 0 
928 1 -12.5171 -9.91099 0 
929 1 -11.9217 -10.857 0 
930 1 -11.3849 -9.85156 0 
931 1 -10.7904 -10.7985 0 
933 1 -9.66003 -10.7387 0 
935 1 -8.53056 -10.678 0 
937 1 -7.40217 -10.6168 0 
939 1 -6.2752 -10.5553 0 
941 1 -5.14922 -10.4949 0 
943 1 -4.02441 -10.4359 0 
945 1 -2.90043 -10.3798 0 
947 1 -1.77668 -10.3276 0 
949 1 -0.652985 -10.2793 0 
951 1 0.471043 -10.2359 0 
953 1 1.59546 -10.1964 0 
955 1 2.72076 -10.1607 0 
957 1 3.84672 -10.1281 0 
959 1 4.97349 -10.0985 0 
961 1 6.10059 -10.0715 0 
963 1 7.22821 -10.0469 0 
965 1 8.35633 -10.0242 0 
866 1 8.93967 -11.0052 0 
967 1 9.4848 -10.0033 0 
868 1 10.0675 -10.9845 0 
969 1 10.6136 -9.98394 0 
870 1 11.1957 -10.9657 0 
971 1 11.7426 -9.96658 0 
872 1 12.3242 -10.9483 0 
973 1 12.8718 -9.95012 0 
874 1 13.4528 -10.932 0 
975 1 14.0014 -9.93527 0 
876 1 14.5819 -10.9173 0 
977 1 15.1313 -9.92158 0 
878 1 15.7111 -10.9037 0 
979 1 16.2613 -9.90893 0 
880 1 16.8404 -10.8912 0 
981 1 17.3913 -9.89728 0 
882 1 17.9698 -10.8798 0 
983 1 18.5214 -9.88694 0 
884 1 19.0994 -10.8691 0 
985 1 19.6517 -9.87727 0 
886 1 20.229 -10.8597 0 
987 1 20.7821 -9.86865 0 
888 1 21.3589 -10.8511 0 
890 1 22.4887 -10.8429 0 
989 1 21.9123 -9.86063 0 
892 1 23.6187 -10.8355 0 
991 1 23.0428 -9.85335 0 
894 1 24.7488 -10.8287 0 
993 1 24.1733 -9.84668 0 
896 2 25.8793 -10.8234 0 
995 2 25.3037 -9.84035 0 
898 2 27.0108 -10.8201 0 
997 2 26.4357 -9.83726 0 
900 2 28.1423 -10.817 0 
999 2 27.5677 -9.8344 0 
1001 2 -27.8125 -9.56805 0 
1003 2 -26.6854 -9.5318 0 
1005 2 -25.5581 -9.49477 0 
1007 2 -24.4305 -9.45693 0 
1009 1 -23.3007 -9.41485 0 
1011 1 -22.1706 -9.37157 0 
1013 1 -21.04 -9.327 0 
1015 1 -19.9092 -9.28102 0 
1017 1 -18.7777 -9.2334 0 
1019 1 -17.6457 -9.18409 0 
1021 1 -16.5134 -9.13272 0 
1023 1 -15.3807 -9.07949 0 
1025 1 -14.2477 -9.02439 0 
1027 1 -13.1148 -8.9667 0 
1029 1 -11.982 -8.90692 0 
932 1 -10.2534 -9.79058 0 
1031 1 -10.8493 -8.84495 0 
934 1 -9.12276 -9.72807 0 
1033 1 -9.71745 -8.78088 0 
936 1 -7.99317 -9.66472 0 
1035 1 -8.58648 -8.71556 0 
938 1 -6.86516 -9.60051 0 
940 1 -5.73837 -9.53693 0 
942 1 -4.61291 -9.47444 0 
944 1 -3.48838 -9.41442 0 
946 1 -2.36459 -9.35877 0 
948 1 -1.24097 -9.30746 0 
950 1 -0.116643 -9.26156 0 
952 1 1.00808 -9.22007 0 
954 1 2.13368 -9.1832 0 
956 1 3.26002 -9.14956 0 
958 1 4.38712 -9.11926 0 
960 1 5.51506 -9.09141 0 
962 1 6.64344 -9.06631 0 
964 1 7.7722 -9.04332 0 
966 1 8.90145 -9.02202 0 
968 1 10.031 -9.00238 0 
970 1 11.1608 -8.98453 0 
972 1 12.2906 -8.9683 0 
974 1 13.4209 -8.95319 0 
976 1 14.5515 -8.93948 0 
978 1 15.682 -8.92664 0 
980 1 16.8124 -8.91487 0 
982 1 17.9432 -8.90455 0 
984 1 19.074 -8.89497 0 
986 1 20.2051 -8.8863 0 
988 1 21.336 -8.87818 0 
990 1 22.4668 -8.87102 0 
992 1 23.5979 -8.86459 0 
994 1 24.7293 -8.85859 0 
996 2 25.8608 -8.85435 0 
998 2 26.9933 -8.85174 0 
1000 2 28.1257 -8.84931 0 
1002 2 -27.2783 -8.57905 0 
1101 2 -27.8711 -7.62598 0 
1004 2 -26.1516 -8.54247 0 
1103 2 -26.7449 -7.58983 0 
1006 2 -25.0246 -8.50509 0 
1105 2 -25.6186 -7.5529 0 
1008 1 -23.8961 -8.46545 0 
1107 2 -24.492 -7.51516 0 
1010 1 -22.7669 -8.42303 0 
1012 1 -21.6371 -8.37938 0 
1014 1 -20.5069 -8.33418 0 
1016 1 -19.3761 -8.28744 0 
1018 1 -18.2447 -8.23883 0 
1020 1 -17.1129 -8.18829 0 
1022 1 -15.9806 -8.13579 0 
1024 1 -14.8478 -8.08113 0 
1026 1 -13.7148 -8.0238 0 
1028 1 -12.5816 -7.96407 0 
1030 1 -11.4483 -7.90179 0 
1032 1 -10.3153 -7.83663 0 
1034 1 -9.18284 -7.76952 0 
1036 1 -8.05184 -7.70011 0 
1037 1 -7.45714 -8.64864 0 
1038 1 -6.92236 -7.62992 0 
1039 1 -6.32922 -8.58176 0 
1041 1 -5.20297 -8.51537 0 
1043 1 -4.07802 -8.45129 0 
1045 1 -2.95375 -8.39117 0 
1047 1 -1.82994 -8.33628 0 
1049 1 -0.705504 -8.28756 0 
1051 1 0.419457 -8.2437 0 
1053 1 1.5455 -8.20538 0 
1055 1 2.67236 -8.17091 0 
1057 1 3.80019 -8.13973 0 
1059 1 4.92865 -8.11156 0 
1061 1 6.05789 -8.08578 0 
1063 1 7.18747 -8.06225 0 
1065 1 8.31766 -8.04091 0 
1067 1 9.44813 -8.02082 0 
1069 1 10.5787 -8.00261 0 
1071 1 11.7095 -7.98618 0 
1073 1 12.8403 -7.97121 0 
1075 1 13.9715 -7.95726 0 
1077 1 15.1026 -7.94433 0 
1079 1 16.2339 -7.93251 0 
1081 1 17.3652 -7.92196 0 
1083 1 18.4965 -7.91242 0 
1085 1 19.6281 -7.90373 0 
1087 1 20.7596 -7.89589 0 
1089 1 21.8912 -7.88863 0 
1091 1 23.0229 -7.8823 0 
1093 1 24.1545 -7.87672 0 
1095 2 25.2861 -7.87134 0 
1097 2 26.419 -7.86899 0 
1099 2 27.5519 -7.8668 0 
1102 2 -27.3381 -6.63684 0 
1104 2 -26.2124 -6.60035 0 
1106 2 -25.0865 -6.56307 0 
1108 1 -23.9595 -6.52384 0 
1109 1 -23.3635 -7.47388 0 
1110 1 -22.8316 -6.48224 0 
1111 1 -22.2346 -7.43123 0 
1112 1 -21.7032 -6.43926 0 
1113 1 -21.105 -7.387 0 
1114 1 -20.5742 -6.39436 0 
1115 1 -19.9751 -7.34116 0 
1116 1 -19.4449 -6.34784 0 
1117 1 -18.8447 -7.29357 0 
1119 1 -17.7135 -7.244 0 
1121 1 -16.5818 -7.19233 0 
1123 1 -15.4498 -7.13855 0 
1125 1 -14.3173 -7.08205 0 
1127 1 -13.1841 -7.02276 0 
1129 1 -12.0506 -6.96064 0 
1131 1 -10.9168 -6.89529 0 
1133 1 -9.78307 -6.82691 0 
1135 1 -8.65028 -6.75554 0 
1137 1 -7.51884 -6.68211 0 
1139 1 -6.38963 -6.60737 0 
1040 1 -5.79491 -7.55944 0 
1141 1 -5.2625 -6.53327 0 
1042 1 -4.66913 -7.4906 0 
1143 1 -4.13731 -6.46225 0 
1044 1 -3.54456 -7.42555 0 
1046 1 -2.42065 -7.366 0 
1048 1 -1.29626 -7.31375 0 
1050 1 -0.171159 -7.2675 0 
1052 1 0.955433 -7.22743 0 
1054 1 2.08309 -7.19176 0 
1056 1 3.21175 -7.15995 0 
1058 1 4.34121 -7.13126 0 
1060 1 5.47136 -7.10518 0 
1062 1 6.60195 -7.08116 0 
1064 1 7.73314 -7.05959 0 
1066 1 8.86443 -7.03939 0 
1068 1 9.99609 -7.02084 0 
1070 1 11.1278 -7.00401 0 
1072 1 12.2596 -6.98882 0 
1074 1 13.3913 -6.97501 0 
1076 1 14.5232 -6.96193 0 
1078 1 15.6553 -6.95012 0 
1080 1 16.7873 -6.93939 0 
1082 1 17.9193 -6.92978 0 
1084 1 19.0515 -6.92106 0 
1086 1 20.1837 -6.9133 0 
1088 1 21.3158 -6.90629 0 
1090 1 22.448 -6.89998 0 
1092 1 23.5802 -6.89442 0 
1094 1 24.7124 -6.88959 0 
1096 2 25.8451 -6.88616 0 
1098 2 26.9784 -6.88422 0 
1100 2 28.1116 -6.88241 0 
1201 2 -27.9311 -5.68349 0 
1203 2 -26.806 -5.64742 0 