ITEM: TIMESTEP
1800
ITEM: NUMBER OF ATOMS
2850
ITEM: BOX BOUNDS ff ff pp
-42.092 42.092
-42.092 42.092
-0.280613 0.280613
ITEM: ATOMS id type xu yu zu 
1 2 -27.3398 -28.9988 0 
3 2 -26.2107 -28.9642 0 
5 2 -25.0816 -28.9291 0 
7 2 -23.9525 -28.8936 0 
9 2 -22.8235 -28.8577 0 
11 2 -21.6944 -28.8213 0 
13 2 -20.5655 -28.7844 0 
15 2 -19.4366 -28.7472 0 
17 2 -18.3079 -28.7095 0 
19 2 -17.1793 -28.6715 0 
21 2 -16.0508 -28.6331 0 
23 2 -14.9226 -28.5944 0 
25 2 -13.7947 -28.5554 0 
27 2 -12.667 -28.5163 0 
29 2 -11.5396 -28.477 0 
31 2 -10.4126 -28.4376 0 
33 2 -9.28592 -28.3982 0 
35 2 -8.15967 -28.3589 0 
37 2 -7.03386 -28.3198 0 
39 2 -5.90848 -28.281 0 
2 2 -26.7941 -28.0086 0 
4 2 -25.6649 -27.9736 0 
6 2 -24.5357 -27.9381 0 
8 2 -23.4065 -27.902 0 
10 2 -22.2773 -27.8656 0 
12 2 -21.1481 -27.8286 0 
14 2 -20.019 -27.7912 0 
16 2 -18.89 -27.7533 0 
18 2 -17.7611 -27.715 0 
20 2 -16.6324 -27.6763 0 
22 2 -15.5039 -27.6373 0 
24 2 -14.3755 -27.5979 0 
26 2 -13.2475 -27.5582 0 
28 2 -12.1197 -27.5183 0 
30 2 -10.9923 -27.4783 0 
32 2 -9.86522 -27.4382 0 
34 2 -8.73856 -27.3981 0 
36 2 -7.61233 -27.3581 0 
38 2 -6.48656 -27.3184 0 
40 2 -5.36126 -27.2789 0 
41 2 -4.78357 -28.2426 0 
42 2 -4.23645 -27.24 0 
43 2 -3.65912 -28.2046 0 
44 2 -3.11213 -27.2015 0 
45 2 -2.53513 -28.1673 0 
46 2 -1.98828 -27.1638 0 
47 2 -1.41159 -28.1307 0 
48 2 -0.8649 -27.1269 0 
49 2 -0.288464 -28.095 0 
51 2 0.834263 -28.0602 0 
53 2 1.95663 -28.0264 0 
55 2 3.07869 -27.9937 0 
57 2 4.20048 -27.9622 0 
59 2 5.32207 -27.9319 0 
61 2 6.4435 -27.9029 0 
63 2 7.56483 -27.8752 0 
65 2 8.68613 -27.8488 0 
67 2 9.80743 -27.8237 0 
69 2 10.9288 -27.8 0 
71 2 12.0503 -27.7775 0 
73 2 13.1719 -27.7563 0 
75 2 14.2937 -27.7363 0 
77 2 15.4157 -27.7174 0 
79 2 16.538 -27.6997 0 
81 2 17.6605 -27.683 0 
83 2 18.7832 -27.6673 0 
85 2 19.9063 -27.6526 0 
87 2 21.0296 -27.6388 0 
89 2 22.1532 -27.6258 0 
91 2 23.2771 -27.6136 0 
93 2 24.4012 -27.6022 0 
95 2 25.5256 -27.5914 0 
97 2 26.6503 -27.5812 0 
99 2 27.7752 -27.5717 0 
101 2 -27.378 -27.0533 0 
103 2 -26.2487 -27.0183 0 
102 2 -26.833 -26.0633 0 
105 2 -25.1194 -26.9828 0 
104 2 -25.7037 -26.0278 0 
107 2 -23.9901 -26.9468 0 
106 2 -24.5742 -25.9918 0 
109 2 -22.8607 -26.9102 0 
108 1 -23.4459 -25.955 0 
111 2 -21.7314 -26.8732 0 
113 2 -20.6021 -26.8357 0 
115 2 -19.4729 -26.7977 0 
117 2 -18.3437 -26.7591 0 
119 2 -17.2147 -26.7202 0 
121 2 -16.0858 -26.6808 0 
123 2 -14.9572 -26.641 0 
125 2 -13.8287 -26.6009 0 
127 2 -12.7006 -26.5605 0 
129 2 -11.5727 -26.5198 0 
131 2 -10.4452 -26.479 0 
133 2 -9.31813 -26.4382 0 
135 2 -8.19146 -26.3973 0 
137 2 -7.06526 -26.3566 0 
139 2 -5.93954 -26.3162 0 
141 2 -4.81433 -26.2762 0 
143 2 -3.68963 -26.2366 0 
145 2 -2.56545 -26.1977 0 
147 2 -1.44177 -26.1596 0 
50 2 0.258046 -27.0909 0 
149 2 -0.318563 -26.1224 0 
52 2 1.38059 -27.056 0 
151 2 0.804196 -26.0862 0 
54 2 2.50279 -27.0222 0 
153 2 1.92656 -26.0512 0 
56 2 3.62468 -26.9896 0 
155 2 3.04857 -26.0174 0 
58 2 4.74633 -26.9582 0 
157 2 4.1703 -25.9849 0 
60 2 5.86779 -26.9282 0 
159 2 5.2918 -25.9538 0 
62 2 6.98913 -26.8996 0 
64 2 8.11041 -26.8723 0 
66 2 9.23169 -26.8465 0 
68 2 10.353 -26.822 0 
70 2 11.4745 -26.7989 0 
72 2 12.596 -26.7771 0 
74 2 13.7178 -26.7566 0 
76 2 14.8398 -26.7373 0 
78 2 15.962 -26.7192 0 
80 2 17.0845 -26.7023 0 
82 2 18.2073 -26.6863 0 
84 2 19.3304 -26.6714 0 
86 2 20.4538 -26.6575 0 
88 2 21.5774 -26.6444 0 
90 2 22.7014 -26.6321 0 
92 2 23.8256 -26.6206 0 
94 2 24.9501 -26.6098 0 
96 2 26.0749 -26.5996 0 
98 2 27.2 -26.5901 0 
100 2 28.3253 -26.5811 0 
201 2 -27.4179 -25.1085 0 
203 2 -26.2885 -25.0731 0 
205 2 -25.159 -25.0372 0 
207 2 -24.0295 -25.0007 0 
209 1 -22.9005 -24.9628 0 
110 1 -22.3167 -25.9173 0 
211 1 -21.7708 -24.9254 0 
112 1 -21.1867 -25.881 0 
213 1 -20.6416 -24.8879 0 
114 1 -20.0562 -25.8419 0 
215 1 -19.5121 -24.8475 0 
116 1 -18.9276 -25.8021 0 
217 1 -18.3827 -24.8079 0 
118 1 -17.7986 -25.7631 0 
120 1 -16.6688 -25.723 0 
122 1 -15.5407 -25.6831 0 
124 1 -14.4129 -25.6439 0 
126 1 -13.2846 -25.6023 0 
128 1 -12.1561 -25.5598 0 
130 1 -11.0282 -25.5185 0 
132 1 -9.90098 -25.4779 0 
134 1 -8.77417 -25.4383 0 
136 1 -7.64714 -25.3953 0 
138 1 -6.52111 -25.3548 0 
140 1 -5.3961 -25.3157 0 
142 1 -4.27146 -25.2736 0 
144 1 -3.14793 -25.2306 0 
146 1 -2.0241 -25.1938 0 
148 1 -0.900933 -25.1561 0 
150 1 0.221473 -25.1182 0 
152 1 1.34452 -25.0838 0 
154 1 2.46687 -25.0509 0 
156 1 3.58939 -25.0164 0 
158 1 4.71083 -24.9847 0 
160 1 5.83199 -24.9544 0 
161 2 6.41316 -25.9242 0 
162 1 6.95346 -24.9242 0 
163 2 7.53443 -25.896 0 
164 1 8.07613 -24.8962 0 
165 2 8.65568 -25.8693 0 
167 2 9.77697 -25.844 0 
166 1 9.19847 -24.8702 0 
169 2 10.8984 -25.8202 0 
168 1 10.3195 -24.8457 0 
171 2 12.0199 -25.7978 0 
170 1 11.4409 -24.8238 0 
173 2 13.1416 -25.7768 0 
175 2 14.2636 -25.7571 0 
177 2 15.3858 -25.7386 0 
179 2 16.5083 -25.7213 0 
181 2 17.6311 -25.7052 0 
183 2 18.7543 -25.6901 0 
185 2 19.8777 -25.6759 0 
187 2 21.0014 -25.6627 0 
189 2 22.1254 -25.6504 0 
191 2 23.2498 -25.6388 0 
193 2 24.3744 -25.628 0 
195 2 25.4993 -25.6179 0 
197 2 26.6245 -25.6084 0 
199 2 27.75 -25.5994 0 
202 2 -26.8739 -24.1187 0 
204 2 -25.7444 -24.0828 0 
206 2 -24.6148 -24.0464 0 
208 1 -23.4854 -24.0087 0 
210 1 -22.3561 -23.9709 0 
212 1 -21.2261 -23.9333 0 
214 1 -20.096 -23.8946 0 
216 1 -18.9664 -23.8538 0 
219 1 -17.2529 -24.7671 0 
218 1 -17.8377 -23.8125 0 
221 1 -16.1238 -24.7248 0 
220 1 -16.7084 -23.7695 0 
222 1 -15.5788 -23.7279 0 
223 1 -14.9953 -24.6852 0 
224 1 -14.4513 -23.6857 0 
225 1 -13.868 -24.6436 0 
227 1 -12.7411 -24.602 0 
229 1 -11.6123 -24.5609 0 
231 1 -10.4837 -24.519 0 
233 1 -9.35822 -24.4781 0 
235 1 -8.23293 -24.4364 0 
237 1 -7.10501 -24.3931 0 
239 1 -5.9786 -24.3519 0 
241 1 -4.85497 -24.311 0 
243 1 -3.73132 -24.2683 0 
245 1 -2.60584 -24.2286 0 
247 1 -1.48168 -24.1902 0 
249 1 -0.35954 -24.1507 0 
251 1 0.764988 -24.1152 0 
253 1 1.88796 -24.0801 0 
255 1 3.00932 -24.0467 0 
257 1 4.13174 -24.0147 0 
259 1 5.25405 -23.9842 0 
261 1 6.37553 -23.9522 0 
263 1 7.49821 -23.9244 0 
265 1 8.62077 -23.8976 0 
267 1 9.74257 -23.8724 0 
269 1 10.8645 -23.8495 0 
271 1 11.9868 -23.8289 0 
172 1 12.564 -24.8031 0 
273 1 13.1093 -23.8073 0 
174 1 13.6863 -24.7826 0 
275 1 14.2322 -23.7872 0 
176 1 14.8079 -24.7632 0 
277 1 15.3555 -23.7692 0 
178 1 15.9309 -24.7455 0 
279 1 16.4785 -23.7511 0 
180 1 17.0544 -24.7274 0 
281 1 17.6028 -23.7346 0 
182 1 18.1783 -24.7122 0 
283 1 18.727 -23.7196 0 
184 1 19.3025 -24.6976 0 
285 1 19.8516 -23.7052 0 
186 1 20.4264 -24.6843 0 
287 1 20.9756 -23.6928 0 
188 1 21.551 -24.6718 0 
289 1 22.0997 -23.6804 0 
190 1 22.6764 -24.6584 0 
291 1 23.2249 -23.6676 0 
192 1 23.8009 -24.6463 0 
293 1 24.3496 -23.6546 0 
194 1 24.9246 -24.6361 0 
295 2 25.4729 -23.6443 0 
196 2 26.0488 -24.6264 0 
198 2 27.1745 -24.6176 0 
200 2 28.3003 -24.6093 0 
301 2 -27.4598 -23.1644 0 
303 2 -26.3303 -23.1287 0 
305 2 -25.2007 -23.0924 0 
307 2 -24.071 -23.0555 0 
309 1 -22.9391 -23.0163 0 
311 1 -21.8093 -22.9787 0 
313 1 -20.6804 -22.9401 0 
315 1 -19.5508 -22.9003 0 
317 1 -18.421 -22.8582 0 
319 1 -17.2922 -22.8151 0 
321 1 -16.1625 -22.7738 0 
323 1 -15.0344 -22.7305 0 
226 1 -13.3234 -23.6438 0 
325 1 -13.9061 -22.6877 0 
327 1 -12.7787 -22.6443 0 
228 1 -12.1961 -23.603 0 
329 1 -11.6523 -22.6012 0 
230 1 -11.0687 -23.5613 0 
331 1 -10.5256 -22.5579 0 
232 1 -9.94148 -23.5175 0 
333 1 -9.39778 -22.5156 0 
234 1 -8.81559 -23.4755 0 
236 1 -7.68966 -23.4333 0 
238 1 -6.56337 -23.3897 0 
240 1 -5.43827 -23.3465 0 
242 1 -4.31389 -23.3058 0 
244 1 -3.18875 -23.2656 0 
246 1 -2.06488 -23.2259 0 
248 1 -0.942036 -23.1852 0 
250 1 0.182499 -23.1489 0 
252 1 1.30597 -23.1116 0 
254 1 2.42891 -23.0763 0 
256 1 3.55076 -23.0439 0 
258 1 4.67238 -23.0138 0 
260 1 5.79414 -22.9814 0 
262 1 6.91642 -22.9515 0 
264 1 8.03823 -22.9246 0 
266 1 9.16104 -22.8993 0 
268 1 10.284 -22.8759 0 
270 1 11.4079 -22.8539 0 
272 1 12.5313 -22.8331 0 
274 1 13.6548 -22.8116 0 
276 1 14.7787 -22.7922 0 
278 1 15.9026 -22.775 0 
280 1 17.026 -22.7582 0 
282 1 18.1502 -22.7421 0 
284 1 19.2754 -22.7274 0 
286 1 20.4007 -22.7136 0 
288 1 21.5248 -22.7006 0 
290 1 22.649 -22.6888 0 
292 1 23.7733 -22.6762 0 
294 1 24.8982 -22.6631 0 
297 2 26.5987 -23.6355 0 
296 2 26.0228 -22.6533 0 
299 2 27.7248 -23.6273 0 
298 2 27.149 -22.6452 0 
300 2 28.2755 -22.6376 0 
302 2 -26.9167 -22.1747 0 
304 2 -25.7871 -22.1385 0 
306 2 -24.6574 -22.1018 0 
308 1 -23.5258 -22.0634 0 
310 1 -22.3953 -22.025 0 
312 1 -21.2653 -21.9851 0 
314 1 -20.1351 -21.9456 0 
316 1 -19.0048 -21.9054 0 
318 1 -17.8761 -21.8619 0 
320 1 -16.7464 -21.82 0 
322 1 -15.6184 -21.7767 0 
324 1 -14.4914 -21.7328 0 
326 1 -13.3634 -21.6884 0 
328 1 -12.2359 -21.6421 0 
330 1 -11.1089 -21.598 0 
332 1 -9.98111 -21.5569 0 
334 1 -8.85465 -21.5132 0 
335 1 -8.271 -22.4724 0 
336 1 -7.72818 -21.4694 0 
337 1 -7.14591 -22.429 0 
338 1 -6.60302 -21.4247 0 
339 1 -6.02167 -22.3852 0 
340 1 -5.47702 -21.3834 0 
341 1 -4.89571 -22.3433 0 
343 1 -3.77037 -22.3032 0 
345 1 -2.64678 -22.2604 0 
347 1 -1.5231 -22.2204 0 
349 1 -0.398306 -22.1833 0 
351 1 0.724411 -22.1443 0 
353 1 1.84709 -22.1088 0 
355 1 2.96992 -22.0737 0 
357 1 4.09223 -22.041 0 
359 1 5.21373 -22.0114 0 
361 1 6.33605 -21.9797 0 
363 1 7.45824 -21.9505 0 
365 1 8.58094 -21.9246 0 
367 1 9.70461 -21.9006 0 
369 1 10.8288 -21.8794 0 
371 1 11.9537 -21.8576 0 
373 1 13.0775 -21.838 0 
375 1 14.2017 -21.8171 0 
377 1 15.3264 -21.7988 0 
379 1 16.45 -21.7817 0 
381 1 17.5734 -21.7653 0 
383 1 18.6976 -21.7493 0 
385 1 19.8235 -21.7357 0 
387 1 20.9492 -21.7221 0 
389 1 22.0738 -21.7087 0 
391 1 23.1985 -21.6957 0 
393 1 24.3227 -21.6833 0 
395 2 25.4466 -21.6709 0 
397 2 26.573 -21.6629 0 
399 2 27.6998 -21.6554 0 
401 2 -27.5037 -21.2208 0 
403 2 -26.3741 -21.1849 0 
402 2 -26.9617 -20.2313 0 
405 2 -25.2445 -21.1483 0 
404 2 -25.8321 -20.1949 0 
407 2 -24.1147 -21.111 0 
409 1 -22.9838 -21.0723 0 
411 1 -21.853 -21.033 0 
413 1 -20.721 -20.9921 0 
415 1 -19.5909 -20.9524 0 
417 1 -18.4627 -20.9097 0 
419 1 -17.334 -20.8679 0 
421 1 -16.2046 -20.8231 0 
423 1 -15.0754 -20.7773 0 
425 1 -13.947 -20.7333 0 
427 1 -12.82 -20.6869 0 
429 1 -11.6924 -20.6409 0 
431 1 -10.565 -20.5979 0 
433 1 -9.43902 -20.5544 0 
435 1 -8.31238 -20.5107 0 
437 1 -7.18566 -20.4656 0 
439 1 -6.05764 -20.4229 0 
342 1 -4.35083 -21.3411 0 
441 1 -4.93125 -20.3796 0 
344 1 -3.22779 -21.2963 0 
443 1 -3.80787 -20.3334 0 
346 1 -2.10326 -21.2543 0 
445 1 -2.68413 -20.2918 0 
348 1 -0.979606 -21.216 0 
447 1 -1.56074 -20.2498 0 
350 1 0.142604 -21.1762 0 
352 1 1.26653 -21.139 0 
354 1 2.38962 -21.1038 0 
356 1 3.51221 -21.0692 0 
358 1 4.63588 -21.0378 0 
360 1 5.7579 -21.0072 0 
362 1 6.88026 -20.9772 0 
364 1 8.00367 -20.95 0 
366 1 9.12751 -20.9259 0 
368 1 10.2515 -20.9041 0 
370 1 11.375 -20.8831 0 
372 1 12.5003 -20.8622 0 
374 1 13.6243 -20.8419 0 
376 1 14.749 -20.8227 0 
378 1 15.873 -20.8045 0 
380 1 16.9969 -20.7883 0 
382 1 18.1211 -20.7717 0 
384 1 19.2459 -20.7571 0 
386 1 20.3709 -20.7439 0 
388 1 21.4958 -20.7298 0 
390 1 22.6206 -20.7155 0 
392 1 23.7455 -20.7019 0 
394 1 24.8711 -20.6902 0 
396 2 25.9969 -20.6804 0 
398 2 27.1238 -20.673 0 
400 2 28.251 -20.6661 0 
501 2 -27.5497 -19.2779 0 
503 2 -26.4202 -19.2417 0 
505 2 -25.2906 -19.2049 0 
406 2 -24.7023 -20.1579 0 
507 2 -24.1608 -19.1673 0 
408 1 -23.5709 -20.1193 0 
509 1 -23.029 -19.1278 0 
410 1 -22.4409 -20.0808 0 
511 1 -21.8976 -19.0893 0 
412 1 -21.3102 -20.0415 0 
513 1 -20.7668 -19.0492 0 
414 1 -20.1786 -20.0003 0 
416 1 -19.0493 -19.9587 0 
418 1 -17.9197 -19.9149 0 
420 1 -16.7913 -19.8701 0 
422 1 -15.6618 -19.824 0 
424 1 -14.5317 -19.7779 0 
426 1 -13.4039 -19.7317 0 
428 1 -12.2762 -19.6863 0 
430 1 -11.148 -19.6413 0 
432 1 -10.0204 -19.5958 0 
434 1 -8.89384 -19.5504 0 
436 1 -7.76701 -19.5069 0 
438 1 -6.63902 -19.4626 0 
440 1 -5.51294 -19.4175 0 
442 1 -4.38831 -19.3711 0 
444 1 -3.26282 -19.3285 0 
446 1 -2.14051 -19.2855 0 
448 1 -1.01935 -19.2433 0 
449 1 -0.439475 -20.2084 0 
450 1 0.104981 -19.204 0 
451 1 0.6836 -20.1714 0 
452 1 1.2274 -19.166 0 
453 1 1.80707 -20.1345 0 
454 1 2.35051 -19.1296 0 
455 1 2.93046 -20.0984 0 
456 1 3.47461 -19.0955 0 
457 1 4.05425 -20.0668 0 
459 1 5.17707 -20.0339 0 
461 1 6.29943 -20.0034 0 
463 1 7.42202 -19.9765 0 
465 1 8.5459 -19.9517 0 
467 1 9.67169 -19.9291 0 
469 1 10.7966 -19.9068 0 
471 1 11.921 -19.887 0 
473 1 13.0453 -19.8654 0 
475 1 14.1699 -19.8463 0 
477 1 15.2946 -19.8267 0 
479 1 16.4203 -19.81 0 
481 1 17.5456 -19.7944 0 
483 1 18.6713 -19.7785 0 
485 1 19.7967 -19.7645 0 
487 1 20.9211 -19.7509 0 
489 1 22.0455 -19.7364 0 
491 1 23.1705 -19.7218 0 
493 1 24.2956 -19.7097 0 
495 2 25.4205 -19.6978 0 
497 2 26.5477 -19.6905 0 
499 2 27.6751 -19.6838 0 
502 2 -27.0088 -18.2886 0 
504 2 -25.8793 -18.252 0 
506 2 -24.7497 -18.2147 0 
508 1 -23.6196 -18.1763 0 
510 1 -22.4871 -18.1367 0 
512 1 -21.3561 -18.0965 0 
514 1 -20.2248 -18.0552 0 
515 1 -19.6359 -19.0072 0 
516 1 -19.0944 -18.0118 0 
517 1 -18.5062 -18.9638 0 
518 1 -17.9651 -17.9665 0 
519 1 -17.3766 -18.9171 0 
520 1 -16.8358 -17.9188 0 
521 1 -16.2482 -18.871 0 
523 1 -15.1192 -18.8249 0 
525 1 -13.9901 -18.7775 0 
527 1 -12.8612 -18.7319 0 
529 1 -11.7322 -18.6863 0 
531 1 -10.604 -18.6401 0 
533 1 -9.4761 -18.5931 0 
535 1 -8.34775 -18.5477 0 
537 1 -7.22108 -18.5038 0 
539 1 -6.09521 -18.4566 0 
541 1 -4.97012 -18.4094 0 
543 1 -3.84472 -18.3657 0 
545 1 -2.7212 -18.3192 0 
547 1 -1.59907 -18.2752 0 
549 1 -0.476362 -18.2371 0 
551 1 0.647323 -18.1962 0 
553 1 1.7718 -18.1597 0 
555 1 2.89627 -18.1237 0 
557 1 4.01953 -18.0898 0 
458 1 4.59779 -19.0626 0 
559 1 5.14217 -18.0577 0 
460 1 5.72071 -19.0305 0 
561 1 6.26496 -18.0263 0 
462 1 6.84326 -19.0017 0 
563 1 7.38777 -17.9995 0 
464 1 7.96652 -18.976 0 
565 1 8.51246 -17.9767 0 
466 1 9.0921 -18.9536 0 
567 1 9.6381 -17.9546 0 
468 1 10.2183 -18.9307 0 
569 1 10.7642 -17.9324 0 
470 1 11.3435 -18.9098 0 
472 1 12.4672 -18.8889 0 
474 1 13.5919 -18.8686 0 
476 1 14.7166 -18.8504 0 
478 1 15.8425 -18.8319 0 
480 1 16.9679 -18.8149 0 
482 1 18.0935 -18.8003 0 
484 1 19.2199 -18.7852 0 
486 1 20.3459 -18.771 0 
488 1 21.4715 -18.7566 0 
490 1 22.5955 -18.7427 0 
492 1 23.7198 -18.7289 0 
494 1 24.844 -18.7167 0 
496 2 25.9714 -18.7078 0 
498 2 27.0991 -18.7012 0 
500 2 28.2271 -18.6951 0 
601 2 -27.5979 -17.3354 0 
603 2 -26.4686 -17.2992 0 
605 2 -25.3391 -17.2621 0 
607 2 -24.2094 -17.2244 0 
609 1 -23.078 -17.1851 0 
611 1 -21.9458 -17.1443 0 
613 1 -20.8137 -17.1036 0 
615 1 -19.683 -17.0592 0 
617 1 -18.5546 -17.0145 0 
619 1 -17.4254 -16.9687 0 
522 1 -15.7069 -17.873 0 
621 1 -16.2942 -16.9209 0 
524 1 -14.5769 -17.8261 0 
623 1 -15.1645 -16.8747 0 
526 1 -13.4475 -17.7779 0 
625 1 -14.0351 -16.8259 0 
528 1 -12.3181 -17.731 0 
627 1 -12.9047 -16.7774 0 
530 1 -11.189 -17.6845 0 
532 1 -10.0603 -17.6375 0 
534 1 -8.93198 -17.591 0 
536 1 -7.80475 -17.5454 0 
538 1 -6.67928 -17.4981 0 
540 1 -5.55287 -17.4506 0 
542 1 -4.42694 -17.4032 0 
544 1 -3.30461 -17.3545 0 
546 1 -2.18064 -17.309 0 
548 1 -1.05556 -17.2673 0 
550 1 0.0670766 -17.2257 0 
552 1 1.19123 -17.1885 0 
554 1 2.31488 -17.1525 0 
556 1 3.43851 -17.1171 0 
558 1 4.56236 -17.0836 0 
560 1 5.6843 -17.0527 0 
562 1 6.80773 -17.0236 0 
564 1 7.93146 -16.9988 0 
566 1 9.05547 -16.9773 0 
568 1 10.1807 -16.957 0 
571 1 11.8887 -17.9118 0 
570 1 11.3066 -16.9348 0 
573 1 13.0134 -17.8918 0 
572 1 12.4314 -16.9141 0 
575 1 14.1394 -17.8717 0 
574 1 13.557 -16.8952 0 
577 1 15.2643 -17.8539 0 
576 1 14.684 -16.8747 0 
579 1 16.3893 -17.8362 0 
578 1 15.8102 -16.8567 0 
581 1 17.5145 -17.8203 0 
580 1 16.936 -16.8411 0 
583 1 18.6394 -17.8053 0 
582 1 18.0616 -16.8248 0 
585 1 19.7662 -17.7915 0 
584 1 19.1881 -16.8114 0 
587 1 20.892 -17.7769 0 
586 1 20.3145 -16.7961 0 
589 1 22.0177 -17.7622 0 
588 1 21.4403 -16.7825 0 
591 1 23.1432 -17.7499 0 
590 1 22.5665 -16.7692 0 
593 1 24.2687 -17.7361 0 
592 1 23.6928 -16.7569 0 
595 2 25.3948 -17.725 0 
594 1 24.8196 -16.7455 0 
596 2 25.9465 -16.7357 0 
597 2 26.5229 -17.7186 0 
598 2 27.0751 -16.7299 0 
599 2 27.6512 -17.7126 0 
600 2 28.2039 -16.7246 0 
602 2 -27.0583 -16.3463 0 
604 2 -25.929 -16.3096 0 
606 2 -24.7995 -16.2721 0 
608 1 -23.6694 -16.2336 0 
610 1 -22.5373 -16.193 0 
612 1 -21.4055 -16.1525 0 
614 1 -20.2749 -16.1095 0 
616 1 -19.1443 -16.0628 0 
618 1 -18.0136 -16.0174 0 
620 1 -16.8831 -15.9702 0 
622 1 -15.752 -15.9212 0 
624 1 -14.6214 -15.8738 0 
626 1 -13.4917 -15.8242 0 
628 1 -12.3617 -15.7754 0 
629 1 -11.7732 -16.7281 0 
630 1 -11.2303 -15.7261 0 
631 1 -10.6436 -16.6808 0 
632 1 -10.1017 -15.6761 0 
633 1 -9.51645 -16.6336 0 
634 1 -8.97358 -15.6276 0 
635 1 -8.38917 -16.5861 0 
637 1 -7.26252 -16.5391 0 
639 1 -6.13469 -16.4918 0 
641 1 -5.00904 -16.4426 0 
643 1 -3.8863 -16.3905 0 
645 1 -2.76121 -16.3447 0 
647 1 -1.63622 -16.301 0 
649 1 -0.51347 -16.256 0 
651 1 0.611118 -16.2187 0 
653 1 1.73459 -16.1808 0 
655 1 2.85723 -16.1449 0 
657 1 3.98116 -16.1117 0 
659 1 5.10444 -16.0772 0 
661 1 6.22763 -16.0499 0 
663 1 7.35133 -16.0228 0 
665 1 8.47586 -15.9998 0 
667 1 9.59999 -15.9789 0 
669 1 10.7241 -15.9584 0 
671 1 11.8499 -15.9368 0 
673 1 12.9755 -15.9166 0 
675 1 14.1004 -15.8969 0 
677 1 15.2275 -15.8787 0 
679 1 16.3556 -15.8619 0 
681 1 17.4833 -15.8448 0 
683 1 18.6105 -15.8304 0 
685 1 19.7359 -15.8167 0 
687 1 20.8617 -15.8022 0 
689 1 21.9882 -15.7897 0 
691 1 23.1159 -15.7762 0 
693 1 24.2433 -15.7648 0 
695 2 25.3699 -15.7527 0 
697 2 26.4989 -15.7471 0 
699 2 27.6281 -15.742 0 
701 2 -27.6483 -15.3934 0 
703 2 -26.5193 -15.357 0 
705 2 -25.3901 -15.3199 0 
707 2 -24.2607 -15.282 0 
709 1 -23.1292 -15.2424 0 
711 1 -21.9978 -15.2008 0 
713 1 -20.8664 -15.1596 0 
715 1 -19.7357 -15.1145 0 
717 1 -18.6047 -15.0673 0 
719 1 -17.4738 -15.0193 0 
721 1 -16.3433 -14.9696 0 
723 1 -15.2114 -14.9217 0 
725 1 -14.0809 -14.8716 0 
727 1 -12.9504 -14.8223 0 
729 1 -11.8197 -14.7742 0 
731 1 -10.6904 -14.7233 0 
733 1 -9.55994 -14.6733 0 
636 1 -7.84582 -15.5799 0 
735 1 -8.4303 -14.6227 0 
638 1 -6.71848 -15.5321 0 
737 1 -7.30412 -14.5736 0 
640 1 -5.59337 -15.4819 0 
739 1 -6.17856 -14.5226 0 
642 1 -4.47025 -15.4293 0 
644 1 -3.34391 -15.3817 0 
646 1 -2.21925 -15.3347 0 
648 1 -1.09699 -15.2892 0 
650 1 0.0278746 -15.25 0 
652 1 1.15078 -15.211 0 
654 1 2.27444 -15.174 0 
656 1 3.39811 -15.1405 0 
658 1 4.5209 -15.1052 0 
660 1 5.64615 -15.075 0 
662 1 6.76983 -15.0477 0 
664 1 7.89518 -15.023 0 
666 1 9.01949 -15.0002 0 
668 1 10.1443 -14.9794 0 
670 1 11.2697 -14.9592 0 
672 1 12.3957 -14.9385 0 
674 1 13.5219 -14.9181 0 
676 1 14.6494 -14.9008 0 
678 1 15.7765 -14.8825 0 
680 1 16.9034 -14.8659 0 
682 1 18.0301 -14.8494 0 
684 1 19.1573 -14.8355 0 
686 1 20.284 -14.8217 0 
688 1 21.4102 -14.8097 0 
690 1 22.5366 -14.7965 0 
692 1 23.6668 -14.7843 0 
694 1 24.7951 -14.7724 0 
696 2 25.9226 -14.7642 0 
698 2 27.0521 -14.7592 0 
700 2 28.1818 -14.7547 0 
702 2 -27.11 -14.4044 0 
801 2 -27.7009 -13.4516 0 
704 2 -25.9811 -14.3676 0 
803 2 -26.5724 -13.4152 0 
706 2 -24.852 -14.3301 0 
805 2 -25.4437 -13.3781 0 
708 1 -23.7206 -14.2914 0 
807 2 -24.3146 -13.3401 0 
710 1 -22.5894 -14.2499 0 
809 1 -23.1838 -13.2998 0 
712 1 -21.458 -14.2082 0 
714 1 -20.3284 -14.1647 0 
716 1 -19.1986 -14.1187 0 
718 1 -18.0665 -14.0711 0 
720 1 -16.9349 -14.0202 0 
722 1 -15.8027 -13.9713 0 
724 1 -14.6722 -13.9211 0 
726 1 -13.5408 -13.8707 0 
728 1 -12.4093 -13.822 0 
730 1 -11.2787 -13.771 0 
732 1 -10.1486 -13.7219 0 
734 1 -9.01828 -13.6704 0 
736 1 -7.88932 -13.6157 0 
738 1 -6.76262 -13.5634 0 
740 1 -5.63811 -13.5096 0 
741 1 -5.05414 -14.4681 0 
742 1 -4.51178 -13.4579 0 
743 1 -3.92905 -14.4198 0 
744 1 -3.38827 -13.4054 0 
745 1 -2.80455 -14.3697 0 
746 1 -2.26516 -13.3545 0 
747 1 -1.68113 -14.3218 0 
749 1 -0.555976 -14.2814 0 
751 1 0.567044 -14.24 0 
753 1 1.69051 -14.2027 0 
755 1 2.81475 -14.167 0 
757 1 3.93763 -14.1332 0 
759 1 5.06209 -14.1023 0 
761 1 6.18654 -14.0711 0 
763 1 7.31176 -14.0469 0 
765 1 8.43716 -14.0214 0 
767 1 9.56214 -14.0002 0 
769 1 10.6867 -13.9798 0 
771 1 11.8123 -13.9602 0 
773 1 12.9398 -13.9397 0 
775 1 14.0691 -13.9214 0 
777 1 15.1975 -13.9039 0 
779 1 16.3263 -13.8859 0 
781 1 17.4524 -13.869 0 
783 1 18.5799 -13.8553 0 
785 1 19.7076 -13.8408 0 
787 1 20.8366 -13.8273 0 
789 1 21.9626 -13.8157 0 
791 1 23.0882 -13.8044 0 
793 1 24.2166 -13.7925 0 
795 2 25.3462 -13.7811 0 
797 2 26.4761 -13.7764 0 
799 2 27.6062 -13.772 0 
802 2 -27.164 -12.4626 0 
804 2 -26.0357 -12.4259 0 
806 2 -24.9071 -12.3884 0 
808 1 -23.777 -12.3492 0 
810 1 -22.6468 -12.3077 0 
811 1 -22.0531 -13.2579 0 
812 1 -21.5165 -12.2648 0 
813 1 -20.9221 -13.2142 0 
814 1 -20.3861 -12.2197 0 
815 1 -19.7917 -13.1687 0 
816 1 -19.2534 -12.1749 0 
817 1 -18.6599 -13.1237 0 
818 1 -18.1214 -12.1262 0 
819 1 -17.5283 -13.0738 0 
821 1 -16.3948 -13.0233 0 
823 1 -15.2625 -12.972 0 
825 1 -14.1318 -12.9217 0 
827 1 -12.9999 -12.8709 0 
829 1 -11.8681 -12.8202 0 
831 1 -10.7369 -12.7683 0 
833 1 -9.60747 -12.7174 0 
835 1 -8.47887 -12.6616 0 
837 1 -7.3497 -12.606 0 
839 1 -6.22224 -12.5513 0 
841 1 -5.09587 -12.4982 0 
843 1 -3.973 -12.442 0 
845 1 -2.8499 -12.3891 0 
748 1 -1.14026 -13.313 0 
847 1 -1.72456 -12.3445 0 
849 1 -0.602016 -12.2978 0 
750 1 -0.0172256 -13.2693 0 
851 1 0.521934 -12.2578 0 
752 1 1.10717 -13.2299 0 
853 1 1.64437 -12.2186 0 
754 1 2.23088 -13.1924 0 
756 1 3.35483 -13.1573 0 
758 1 4.47832 -13.1267 0 
760 1 5.60211 -13.0963 0 
762 1 6.72803 -13.0693 0 
764 1 7.85307 -13.0442 0 
766 1 8.97993 -13.0208 0 
768 1 10.1053 -12.9997 0 
770 1 11.2319 -12.981 0 
772 1 12.3599 -12.9626 0 
774 1 13.4889 -12.9422 0 
776 1 14.6176 -12.9237 0 
778 1 15.7461 -12.9079 0 
780 1 16.875 -12.8895 0 
782 1 18.0037 -12.8748 0 
784 1 19.1316 -12.8592 0 
786 1 20.259 -12.8466 0 
788 1 21.3876 -12.833 0 
790 1 22.5151 -12.8225 0 
792 1 23.6423 -12.8128 0 
794 1 24.7704 -12.8009 0 
796 2 25.9 -12.7934 0 
798 2 27.0306 -12.7893 0 
800 2 28.1612 -12.7854 0 
901 2 -27.7557 -11.5099 0 
903 2 -26.6279 -11.4735 0 
905 2 -25.4997 -11.4364 0 
907 2 -24.3713 -11.3985 0 
909 1 -23.2407 -11.3577 0 
911 1 -22.1102 -11.3153 0 
913 1 -20.9804 -11.2701 0 
915 1 -19.8493 -11.226 0 
917 1 -18.7166 -11.179 0 
820 1 -16.9892 -12.0764 0 
919 1 -17.5833 -11.1287 0 
822 1 -15.8561 -12.0256 0 
921 1 -16.4506 -11.0793 0 
824 1 -14.7242 -11.9735 0 
923 1 -15.3189 -11.0273 0 
826 1 -13.5921 -11.9226 0 
828 1 -12.46 -11.8708 0 
830 1 -11.3287 -11.8174 0 
832 1 -10.1979 -11.7639 0 
834 1 -9.06866 -11.7083 0 
836 1 -7.93928 -11.6519 0 
838 1 -6.81071 -11.5949 0 
840 1 -5.68333 -11.5386 0 
842 1 -4.56017 -11.4809 0 
844 1 -3.43548 -11.4255 0 
846 1 -2.30972 -11.3762 0 
848 1 -1.18851 -11.3268 0 
850 1 -0.0638834 -11.2856 0 
852 1 1.05945 -11.2432 0 
855 1 2.76818 -12.1825 0 
854 1 2.18246 -11.2082 0 
857 1 3.89246 -12.1489 0 
856 1 3.30742 -11.1735 0 
859 1 5.0172 -12.1197 0 
858 1 4.43376 -11.1418 0 
861 1 6.14375 -12.093 0 
860 1 5.55936 -11.115 0 
863 1 7.26892 -12.066 0 
862 1 6.6849 -11.0881 0 
865 1 8.39495 -12.0433 0 
864 1 7.81179 -11.0635 0 
867 1 9.52274 -12.0201 0 
869 1 10.6515 -12.0005 0 
871 1 11.7799 -11.9827 0 
873 1 12.9085 -11.9644 0 
875 1 14.0384 -11.9446 0 
877 1 15.167 -11.927 0 
879 1 16.2946 -11.9109 0 
881 1 17.4239 -11.8945 0 
883 1 18.5526 -11.8789 0 
885 1 19.6823 -11.8644 0 
887 1 20.8102 -11.8523 0 
889 1 21.9383 -11.84 0 
891 1 23.0662 -11.8309 0 
893 1 24.1937 -11.8214 0 
895 2 25.3239 -11.8103 0 
897 2 26.4549 -11.8064 0 
899 2 27.586 -11.8028 0 
902 2 -27.2202 -10.5209 0 
904 2 -26.0925 -10.4842 0 
906 2 -24.9646 -10.4468 0 
908 1 -23.8358 -10.4075 0 
910 1 -22.706 -10.3661 0 
912 1 -21.5753 -10.3217 0 
914 1 -20.4436 -10.2771 0 
916 1 -19.3112 -10.2314 0 
918 1 -18.1785 -10.1827 0 
920 1 -17.0459 -10.1326 0 
922 1 -15.9144 -10.0823 0 
924 1 -14.7812 -10.03 0 
925 1 -14.1864 -10.9759 0 
926 1 -13.648 -9.97662 0 
927 1 -13.0528 -10.9229 0 
928 1 -12.5155 -9.92248 0 
929 1 -11.9208 -10.8692 0 
930 1 -11.3817 -9.86635 0 
931 1 -10.7889 -10.8135 0 
933 1 -9.65745 -10.757 0 
935 1 -8.5272 -10.6994 0 
937 1 -7.39919 -10.6395 0 
939 1 -6.27147 -10.5811 0 
941 1 -5.14536 -10.5194 0 
943 1 -4.02071 -10.4626 0 
945 1 -2.89527 -10.4089 0 
947 1 -1.77315 -10.3538 0 
949 1 -0.649086 -10.3125 0 
951 1 0.473163 -10.2702 0 
953 1 1.59751 -10.231 0 
955 1 2.72213 -10.196 0 
957 1 3.84769 -10.1647 0 
959 1 4.9744 -10.1354 0 
961 1 6.10045 -10.1094 0 
963 1 7.22749 -10.0841 0 
965 1 8.3559 -10.0609 0 
866 1 8.93917 -11.0412 0 
967 1 9.48499 -10.0407 0 
868 1 10.0676 -11.0212 0 
969 1 10.6147 -10.0219 0 
870 1 11.1966 -11.0021 0 
971 1 11.7437 -10.0034 0 
872 1 12.3255 -10.9835 0 
973 1 12.8727 -9.98474 0 
874 1 13.4542 -10.9658 0 
975 1 14.0024 -9.96726 0 
876 1 14.5846 -10.9476 0 
977 1 15.1328 -9.9497 0 
878 1 15.7142 -10.9299 0 
979 1 16.2638 -9.934 0 
880 1 16.8442 -10.9144 0 
981 1 17.3945 -9.91832 0 
882 1 17.9737 -10.8981 0 
983 1 18.5249 -9.90275 0 
884 1 19.1021 -10.8838 0 
985 1 19.6546 -9.88903 0 
886 1 20.2315 -10.8713 0 
987 1 20.7837 -9.87786 0 
888 1 21.3614 -10.8592 0 
890 1 22.4911 -10.8485 0 
989 1 21.9147 -9.86808 0 
892 1 23.6192 -10.8394 0 
991 1 23.0455 -9.85805 0 
894 1 24.7481 -10.8316 0 
993 1 24.175 -9.84995 0 
896 2 25.8793 -10.8234 0 
995 2 25.3037 -9.84035 0 
898 2 27.0108 -10.8201 0 
997 2 26.4357 -9.83726 0 
900 2 28.1423 -10.817 0 
999 2 27.5677 -9.8344 0 
1001 2 -27.8125 -9.56805 0 
1003 2 -26.6854 -9.5318 0 
1005 2 -25.5581 -9.49477 0 
1007 2 -24.4305 -9.45693 0 
1009 1 -23.3016 -9.41604 0 
1011 1 -22.1708 -9.37437 0 
1013 1 -21.0385 -9.32983 0 
1015 1 -19.9063 -9.2852 0 
1017 1 -18.7745 -9.23718 0 
1019 1 -17.6431 -9.18786 0 
1021 1 -16.5108 -9.13716 0 
1023 1 -15.3791 -9.08523 0 
1025 1 -14.2464 -9.0316 0 
1027 1 -13.1121 -8.9766 0 
1029 1 -11.9789 -8.92129 0 
932 1 -10.2492 -9.80789 0 
1031 1 -10.846 -8.862 0 
934 1 -9.11935 -9.74863 0 
1033 1 -9.71422 -8.80049 0 
936 1 -7.99066 -9.68724 0 
1035 1 -8.58369 -8.73707 0 
938 1 -6.86156 -9.62567 0 
940 1 -5.73457 -9.56226 0 
942 1 -4.60766 -9.50074 0 
944 1 -3.48261 -9.44204 0 
946 1 -2.36186 -9.38351 0 
948 1 -1.23746 -9.33901 0 
950 1 -0.115733 -9.29353 0 
952 1 1.00845 -9.25481 0 
954 1 2.13317 -9.21816 0 
956 1 3.25973 -9.1853 0 
958 1 4.38568 -9.15524 0 
960 1 5.5135 -9.12943 0 
962 1 6.64098 -9.10493 0 
964 1 7.76915 -9.08103 0 
966 1 8.89926 -9.05979 0 
968 1 10.0292 -9.04185 0 
970 1 11.1604 -9.02264 0 
972 1 12.2914 -9.00424 0 
974 1 13.4222 -8.98738 0 
976 1 14.5531 -8.96977 0 
978 1 15.6847 -8.95354 0 
980 1 16.8156 -8.93797 0 
982 1 17.9466 -8.92233 0 
984 1 19.0788 -8.90864 0 
986 1 20.2103 -8.89491 0 
988 1 21.3409 -8.88548 0 
990 1 22.4704 -8.8767 0 
992 1 23.5996 -8.86822 0 
994 1 24.7288 -8.85958 0 
996 2 25.8608 -8.85435 0 
998 2 26.9933 -8.85174 0 
1000 2 28.1257 -8.84931 0 
1002 2 -27.2783 -8.57905 0 
1101 2 -27.8711 -7.62598 0 
1004 2 -26.1516 -8.54247 0 
1103 2 -26.7449 -7.58983 0 
1006 2 -25.0246 -8.50509 0 
1105 2 -25.6186 -7.5529 0 
1008 1 -23.8961 -8.46507 0 
1107 2 -24.492 -7.51516 0 
1010 1 -22.7664 -8.42521 0 
1012 1 -21.6358 -8.38304 0 
1014 1 -20.5041 -8.33858 0 
1016 1 -19.3732 -8.29212 0 
1018 1 -18.2418 -8.24388 0 
1020 1 -17.1097 -8.19429 0 
1022 1 -15.977 -8.14107 0 
1024 1 -14.8443 -8.08701 0 
1026 1 -13.7106 -8.03314 0 
1028 1 -12.5759 -7.976 0 
1030 1 -11.4424 -7.91812 0 
1032 1 -10.3093 -7.85571 0 
1034 1 -9.17765 -7.78994 0 
1036 1 -8.04571 -7.72404 0 
1037 1 -7.45369 -8.67367 0 
1038 1 -6.91638 -7.65468 0 
1039 1 -6.32514 -8.60682 0 
1041 1 -5.19813 -8.54204 0 
1043 1 -4.07376 -8.47898 0 
1045 1 -2.95179 -8.4155 0 
1047 1 -1.82721 -8.36785 0 
1049 1 -0.705188 -8.31787 0 
1051 1 0.420268 -8.27818 0 
1053 1 1.5451 -8.23937 0 
1055 1 2.67179 -8.20763 0 
1057 1 3.80042 -8.17646 0 
1059 1 4.92954 -8.15017 0 
1061 1 6.05825 -8.12411 0 
1063 1 7.18658 -8.10084 0 
1065 1 8.31635 -8.08027 0 
1067 1 9.44732 -8.06007 0 
1069 1 10.5786 -8.043 0 
1071 1 11.7108 -8.02436 0 
1073 1 12.843 -8.00699 0 
1075 1 13.9748 -7.99051 0 
1077 1 15.1057 -7.97374 0 
1079 1 16.2376 -7.95829 0 
1081 1 17.369 -7.94185 0 
1083 1 18.5001 -7.92711 0 
1085 1 19.6311 -7.91402 0 
1087 1 20.7625 -7.90225 0 
1089 1 21.8949 -7.89368 0 
1091 1 23.0268 -7.88474 0 
1093 1 24.1575 -7.87814 0 
1095 2 25.2861 -7.87134 0 
1097 2 26.419 -7.86899 0 
1099 2 27.5519 -7.8668 0 
1102 2 -27.3381 -6.63684 0 
1104 2 -26.2124 -6.60035 0 
1106 2 -25.0865 -6.56307 0 
1108 1 -23.9598 -6.52517 0 
1109 1 -23.3631 -7.47496 0 
1110 1 -22.8316 -6.48445 0 
1111 1 -22.2344 -7.43388 0 
1112 1 -21.7019 -6.44323 0 
1113 1 -21.1038 -7.39154 0 
1114 1 -20.5713 -6.40012 0 
1115 1 -19.9723 -7.34603 0 
1116 1 -19.44 -6.35444 0 
1117 1 -18.8404 -7.2991 0 
1119 1 -17.7085 -7.25089 0 
1121 1 -16.5765 -7.19877 0 
1123 1 -15.4442 -7.14441 0 
1125 1 -14.3103 -7.09039 0 
1127 1 -13.1756 -7.03426 0 
1129 1 -12.0408 -6.9748 0 
1131 1 -10.9079 -6.91319 0 
1133 1 -9.77531 -6.84579 0 
1135 1 -8.64221 -6.77798 0 
1137 1 -7.51211 -6.70531 0 
1139 1 -6.38301 -6.63188 0 
1040 1 -5.78759 -7.58459 0 
1141 1 -5.25493 -6.55801 0 
1042 1 -4.6622 -7.51644 0 
1143 1 -4.1301 -6.484 0 
1044 1 -3.5404 -7.44946 0 
1046 1 -2.4146 -7.39587 0 
1048 1 -1.29318 -7.34291 0 
1050 1 -0.168536 -7.30183 0 
1052 1 0.95668 -7.26115 0 
1054 1 2.08487 -7.22803 0 
1056 1 3.2133 -7.19839 0 
1058 1 4.34267 -7.16988 0 
1060 1 5.47191 -7.14426 0 
1062 1 6.60303 -7.11941 0 
1064 1 7.73453 -7.09786 0 
1066 1 8.86502 -7.07993 0 
1068 1 9.99621 -7.06146 0 
1070 1 11.1283 -7.04462 0 
1072 1 12.2616 -7.02671 0 
1074 1 13.3949 -7.01033 0 
1076 1 14.5269 -6.99308 0 
1078 1 15.6593 -6.9779 0 
1080 1 16.7905 -6.96233 0 
1082 1 17.9219 -6.94638 0 
1084 1 19.0542 -6.93209 0 
1086 1 20.1862 -6.91885 0 
1088 1 21.318 -6.91056 0 
1090 1 22.4485 -6.90209 0 
1092 1 23.5799 -6.89536 0 
1094 1 24.7126 -6.8898 0 
1096 2 25.8451 -6.88616 0 
1098 2 26.9784 -6.88422 0 
1100 2 28.1116 -6.88241 0 
1201 2 -27.9311 -5.68349 0 
1203 2 -26.806 -5.64742 0 