ITEM: TIMESTEP
3400
ITEM: NUMBER OF ATOMS
2850
ITEM: BOX BOUNDS ff ff pp
-42.092 42.092
-42.092 42.092
-0.280613 0.280613
ITEM: ATOMS id type xu yu zu 
1 2 -27.3398 -28.9988 0 
3 2 -26.2107 -28.9642 0 
5 2 -25.0816 -28.9291 0 
7 2 -23.9525 -28.8936 0 
9 2 -22.8235 -28.8577 0 
11 2 -21.6944 -28.8213 0 
13 2 -20.5655 -28.7844 0 
15 2 -19.4366 -28.7472 0 
17 2 -18.3079 -28.7095 0 
19 2 -17.1793 -28.6715 0 
21 2 -16.0508 -28.6331 0 
23 2 -14.9226 -28.5944 0 
25 2 -13.7947 -28.5554 0 
27 2 -12.667 -28.5163 0 
29 2 -11.5396 -28.477 0 
31 2 -10.4126 -28.4376 0 
33 2 -9.28592 -28.3982 0 
35 2 -8.15967 -28.3589 0 
37 2 -7.03386 -28.3198 0 
39 2 -5.90848 -28.281 0 
2 2 -26.7941 -28.0086 0 
4 2 -25.6649 -27.9736 0 
6 2 -24.5357 -27.9381 0 
8 2 -23.4065 -27.902 0 
10 2 -22.2773 -27.8656 0 
12 2 -21.1481 -27.8286 0 
14 2 -20.019 -27.7912 0 
16 2 -18.89 -27.7533 0 
18 2 -17.7611 -27.715 0 
20 2 -16.6324 -27.6763 0 
22 2 -15.5039 -27.6373 0 
24 2 -14.3755 -27.5979 0 
26 2 -13.2475 -27.5582 0 
28 2 -12.1197 -27.5183 0 
30 2 -10.9923 -27.4783 0 
32 2 -9.86522 -27.4382 0 
34 2 -8.73856 -27.3981 0 
36 2 -7.61233 -27.3581 0 
38 2 -6.48656 -27.3184 0 
40 2 -5.36126 -27.2789 0 
41 2 -4.78357 -28.2426 0 
42 2 -4.23645 -27.24 0 
43 2 -3.65912 -28.2046 0 
44 2 -3.11213 -27.2015 0 
45 2 -2.53513 -28.1673 0 
46 2 -1.98828 -27.1638 0 
47 2 -1.41159 -28.1307 0 
48 2 -0.8649 -27.1269 0 
49 2 -0.288464 -28.095 0 
51 2 0.834263 -28.0602 0 
53 2 1.95663 -28.0264 0 
55 2 3.07869 -27.9937 0 
57 2 4.20048 -27.9622 0 
59 2 5.32207 -27.9319 0 
61 2 6.4435 -27.9029 0 
63 2 7.56483 -27.8752 0 
65 2 8.68613 -27.8488 0 
67 2 9.80743 -27.8237 0 
69 2 10.9288 -27.8 0 
71 2 12.0503 -27.7775 0 
73 2 13.1719 -27.7563 0 
75 2 14.2937 -27.7363 0 
77 2 15.4157 -27.7174 0 
79 2 16.538 -27.6997 0 
81 2 17.6605 -27.683 0 
83 2 18.7832 -27.6673 0 
85 2 19.9063 -27.6526 0 
87 2 21.0296 -27.6388 0 
89 2 22.1532 -27.6258 0 
91 2 23.2771 -27.6136 0 
93 2 24.4012 -27.6022 0 
95 2 25.5256 -27.5914 0 
97 2 26.6503 -27.5812 0 
99 2 27.7752 -27.5717 0 
101 2 -27.378 -27.0533 0 
103 2 -26.2487 -27.0183 0 
102 2 -26.833 -26.0633 0 
105 2 -25.1194 -26.9828 0 
104 2 -25.7037 -26.0278 0 
107 2 -23.9901 -26.9468 0 
106 2 -24.5742 -25.9918 0 
109 2 -22.8607 -26.9102 0 
108 1 -23.4443 -25.9553 0 
111 2 -21.7314 -26.8732 0 
113 2 -20.6021 -26.8357 0 
115 2 -19.4729 -26.7977 0 
117 2 -18.3437 -26.7591 0 
119 2 -17.2147 -26.7202 0 
121 2 -16.0858 -26.6808 0 
123 2 -14.9572 -26.641 0 
125 2 -13.8287 -26.6009 0 
127 2 -12.7006 -26.5605 0 
129 2 -11.5727 -26.5198 0 
131 2 -10.4452 -26.479 0 
133 2 -9.31813 -26.4382 0 
135 2 -8.19146 -26.3973 0 
137 2 -7.06526 -26.3566 0 
139 2 -5.93954 -26.3162 0 
141 2 -4.81433 -26.2762 0 
143 2 -3.68963 -26.2366 0 
145 2 -2.56545 -26.1977 0 
147 2 -1.44177 -26.1596 0 
50 2 0.258046 -27.0909 0 
149 2 -0.318563 -26.1224 0 
52 2 1.38059 -27.056 0 
151 2 0.804196 -26.0862 0 
54 2 2.50279 -27.0222 0 
153 2 1.92656 -26.0512 0 
56 2 3.62468 -26.9896 0 
155 2 3.04857 -26.0174 0 
58 2 4.74633 -26.9582 0 
157 2 4.1703 -25.9849 0 
60 2 5.86779 -26.9282 0 
159 2 5.2918 -25.9538 0 
62 2 6.98913 -26.8996 0 
64 2 8.11041 -26.8723 0 
66 2 9.23169 -26.8465 0 
68 2 10.353 -26.822 0 
70 2 11.4745 -26.7989 0 
72 2 12.596 -26.7771 0 
74 2 13.7178 -26.7566 0 
76 2 14.8398 -26.7373 0 
78 2 15.962 -26.7192 0 
80 2 17.0845 -26.7023 0 
82 2 18.2073 -26.6863 0 
84 2 19.3304 -26.6714 0 
86 2 20.4538 -26.6575 0 
88 2 21.5774 -26.6444 0 
90 2 22.7014 -26.6321 0 
92 2 23.8256 -26.6206 0 
94 2 24.9501 -26.6098 0 
96 2 26.0749 -26.5996 0 
98 2 27.2 -26.5901 0 
100 2 28.3253 -26.5811 0 
201 2 -27.4179 -25.1085 0 
203 2 -26.2885 -25.0731 0 
205 2 -25.159 -25.0372 0 
207 2 -24.0295 -25.0007 0 
209 1 -22.8989 -24.9634 0 
110 1 -22.314 -25.9178 0 
211 1 -21.7689 -24.924 0 
112 1 -21.1846 -25.8794 0 
213 1 -20.639 -24.8856 0 
114 1 -20.0552 -25.8413 0 
215 1 -19.5094 -24.8463 0 
116 1 -18.926 -25.8021 0 
217 1 -18.3802 -24.806 0 
118 1 -17.7972 -25.7627 0 
120 1 -16.6681 -25.7234 0 
122 1 -15.5394 -25.6829 0 
124 1 -14.411 -25.6422 0 
126 1 -13.2829 -25.6016 0 
128 1 -12.1552 -25.5601 0 
130 1 -11.0277 -25.5186 0 
132 1 -9.90027 -25.4771 0 
134 1 -8.77361 -25.4356 0 
136 1 -7.64703 -25.3946 0 
138 1 -6.52098 -25.3524 0 
140 1 -5.39584 -25.3117 0 
142 1 -4.27122 -25.2716 0 
144 1 -3.14687 -25.2316 0 
146 1 -2.02303 -25.1921 0 
148 1 -0.899571 -25.1541 0 
150 1 0.22338 -25.1164 0 
152 1 1.34576 -25.0808 0 
154 1 2.46814 -25.0461 0 
156 1 3.5903 -25.0123 0 
158 1 4.71194 -24.9804 0 
160 1 5.83354 -24.9498 0 
161 2 6.41316 -25.9242 0 
162 1 6.9552 -24.9209 0 
163 2 7.53443 -25.896 0 
164 1 8.07691 -24.8933 0 
165 2 8.65568 -25.8693 0 
167 2 9.77697 -25.844 0 
166 1 9.19866 -24.8678 0 
169 2 10.8984 -25.8202 0 
168 1 10.3203 -24.8433 0 
171 2 12.0199 -25.7978 0 
170 1 11.4423 -24.8203 0 
173 2 13.1416 -25.7768 0 
175 2 14.2636 -25.7571 0 
177 2 15.3858 -25.7386 0 
179 2 16.5083 -25.7213 0 
181 2 17.6311 -25.7052 0 
183 2 18.7543 -25.6901 0 
185 2 19.8777 -25.6759 0 
187 2 21.0014 -25.6627 0 
189 2 22.1254 -25.6504 0 
191 2 23.2498 -25.6388 0 
193 2 24.3744 -25.628 0 
195 2 25.4993 -25.6179 0 
197 2 26.6245 -25.6084 0 
199 2 27.75 -25.5994 0 
202 2 -26.8739 -24.1187 0 
204 2 -25.7444 -24.0828 0 
206 2 -24.6148 -24.0464 0 
208 1 -23.4842 -24.0089 0 
210 1 -22.3542 -23.9698 0 
212 1 -21.2237 -23.9303 0 
214 1 -20.0938 -23.891 0 
216 1 -18.9644 -23.8504 0 
219 1 -17.2509 -24.7665 0 
218 1 -17.8346 -23.8101 0 
221 1 -16.122 -24.7255 0 
220 1 -16.7055 -23.7691 0 
222 1 -15.5766 -23.7269 0 
223 1 -14.9933 -24.6841 0 
224 1 -14.4476 -23.6854 0 
225 1 -13.8647 -24.6431 0 
227 1 -12.7369 -24.6012 0 
229 1 -11.6095 -24.5588 0 
231 1 -10.4821 -24.5171 0 
233 1 -9.35506 -24.4744 0 
235 1 -8.22852 -24.4326 0 
237 1 -7.10263 -24.3902 0 
239 1 -5.97682 -24.3476 0 
241 1 -4.8518 -24.3066 0 
243 1 -3.72747 -24.2659 0 
245 1 -2.60366 -24.2254 0 
247 1 -1.48005 -24.186 0 
249 1 -0.356944 -24.1474 0 
251 1 0.766124 -24.1102 0 
253 1 1.88859 -24.075 0 
255 1 3.01085 -24.0404 0 
257 1 4.13263 -24.0072 0 
259 1 5.25413 -23.9758 0 
261 1 6.37584 -23.9457 0 
263 1 7.49781 -23.9177 0 
265 1 8.62026 -23.8913 0 
267 1 9.74216 -23.8664 0 
269 1 10.8642 -23.843 0 
271 1 11.9868 -23.8207 0 
172 1 12.5647 -24.7988 0 
273 1 13.1095 -23.8001 0 
174 1 13.6871 -24.7785 0 
275 1 14.2323 -23.7808 0 
176 1 14.8094 -24.7594 0 
277 1 15.3555 -23.7626 0 
178 1 15.932 -24.7418 0 
279 1 16.4789 -23.7456 0 
180 1 17.0551 -24.7255 0 
281 1 17.6023 -23.7299 0 
182 1 18.1787 -24.7098 0 
283 1 18.726 -23.7148 0 
184 1 19.3024 -24.695 0 
285 1 19.8501 -23.7007 0 
186 1 20.426 -24.6817 0 
287 1 20.9746 -23.6884 0 
188 1 21.5501 -24.6694 0 
289 1 22.099 -23.6761 0 
190 1 22.6742 -24.6577 0 
291 1 23.2236 -23.6652 0 
192 1 23.7989 -24.6465 0 
293 1 24.3483 -23.6546 0 
194 1 24.9239 -24.6361 0 
295 2 25.4729 -23.6443 0 
196 2 26.0488 -24.6264 0 
198 2 27.1745 -24.6176 0 
200 2 28.3003 -24.6093 0 
301 2 -27.4598 -23.1644 0 
303 2 -26.3303 -23.1287 0 
305 2 -25.2007 -23.0924 0 
307 2 -24.071 -23.0555 0 
309 1 -22.94 -23.016 0 
311 1 -21.8095 -22.9764 0 
313 1 -20.6791 -22.9362 0 
315 1 -19.5494 -22.8954 0 
317 1 -18.4194 -22.8545 0 
319 1 -17.2899 -22.8132 0 
321 1 -16.1608 -22.7709 0 
323 1 -15.0314 -22.7285 0 
226 1 -13.3194 -23.6429 0 
325 1 -13.903 -22.6854 0 
327 1 -12.7745 -22.6419 0 
228 1 -12.1914 -23.5997 0 
329 1 -11.6461 -22.5982 0 
230 1 -11.0638 -23.5574 0 
331 1 -10.5187 -22.5549 0 
232 1 -9.93672 -23.5146 0 
333 1 -9.3916 -22.5112 0 
234 1 -8.80979 -23.4713 0 
236 1 -7.6837 -23.4282 0 
238 1 -6.55828 -23.3849 0 
240 1 -5.43287 -23.3422 0 
242 1 -4.3085 -23.3005 0 
244 1 -3.18473 -23.2591 0 
246 1 -2.06119 -23.2186 0 
248 1 -0.938188 -23.1789 0 
250 1 0.184759 -23.1407 0 
252 1 1.3077 -23.1041 0 
254 1 2.43011 -23.0689 0 
256 1 3.55241 -23.0345 0 
258 1 4.67439 -23.0021 0 
260 1 5.79638 -22.9711 0 
262 1 6.91847 -22.9421 0 
264 1 8.04076 -22.9154 0 
266 1 9.16336 -22.8898 0 
268 1 10.286 -22.8656 0 
270 1 11.4089 -22.8429 0 
272 1 12.5321 -22.8217 0 
274 1 13.6554 -22.8019 0 
276 1 14.7787 -22.7834 0 
278 1 15.9021 -22.7659 0 
280 1 17.0258 -22.7497 0 
282 1 18.1497 -22.7345 0 
284 1 19.2738 -22.7202 0 
286 1 20.3984 -22.7071 0 
288 1 21.5227 -22.6947 0 
290 1 22.6476 -22.6835 0 
292 1 23.7725 -22.6728 0 
294 1 24.8974 -22.6627 0 
297 2 26.5987 -23.6355 0 
296 2 26.0228 -22.6533 0 
299 2 27.7248 -23.6273 0 
298 2 27.149 -22.6452 0 
300 2 28.2755 -22.6376 0 
302 2 -26.9167 -22.1747 0 
304 2 -25.7871 -22.1385 0 
306 2 -24.6574 -22.1018 0 
308 1 -23.5268 -22.0633 0 
310 1 -22.396 -22.0229 0 
312 1 -21.2654 -21.9826 0 
314 1 -20.1353 -21.9413 0 
316 1 -19.0051 -21.9001 0 
318 1 -17.8751 -21.858 0 
320 1 -16.7455 -21.8156 0 
322 1 -15.6158 -21.7729 0 
324 1 -14.4871 -21.7289 0 
326 1 -13.3582 -21.685 0 
328 1 -12.2295 -21.6406 0 
330 1 -11.1015 -21.5954 0 
332 1 -9.97439 -21.5514 0 
334 1 -8.84763 -21.5067 0 
335 1 -8.26521 -22.4669 0 
336 1 -7.72147 -21.4612 0 
337 1 -7.13984 -22.4226 0 
338 1 -6.59578 -21.4165 0 
339 1 -6.01441 -22.3792 0 
340 1 -5.47101 -21.372 0 
341 1 -4.88956 -22.3357 0 
343 1 -3.76565 -22.2932 0 
345 1 -2.64185 -22.2518 0 
347 1 -1.51869 -22.2108 0 
349 1 -0.395591 -22.1715 0 
351 1 0.727463 -22.1337 0 
353 1 1.85014 -22.0971 0 
355 1 2.97247 -22.0621 0 
357 1 4.09461 -22.0286 0 
359 1 5.21672 -21.9971 0 
361 1 6.33923 -21.967 0 
363 1 7.46172 -21.9392 0 
365 1 8.58424 -21.9135 0 
367 1 9.70695 -21.8884 0 
369 1 10.83 -21.8649 0 
371 1 11.9536 -21.8432 0 
373 1 13.077 -21.823 0 
375 1 14.2004 -21.8038 0 
377 1 15.3243 -21.7861 0 
379 1 16.4485 -21.7694 0 
381 1 17.5727 -21.7539 0 
383 1 18.6968 -21.7392 0 
385 1 19.8212 -21.7262 0 
387 1 20.9459 -21.7135 0 
389 1 22.0709 -21.7017 0 
391 1 23.196 -21.6908 0 
393 1 24.3213 -21.6805 0 
395 2 25.4466 -21.6709 0 
397 2 26.573 -21.6629 0 
399 2 27.6998 -21.6554 0 
401 2 -27.5037 -21.2208 0 
403 2 -26.3741 -21.1849 0 
402 2 -26.9617 -20.2313 0 
405 2 -25.2445 -21.1483 0 
404 2 -25.8321 -20.1949 0 
407 2 -24.1147 -21.111 0 
409 1 -22.9836 -21.0706 0 
411 1 -21.8526 -21.0296 0 
413 1 -20.7222 -20.988 0 
415 1 -19.5913 -20.9465 0 
417 1 -18.461 -20.9039 0 
419 1 -17.3307 -20.8608 0 
421 1 -16.2008 -20.818 0 
423 1 -15.0717 -20.7735 0 
425 1 -13.9425 -20.729 0 
427 1 -12.8138 -20.6841 0 
429 1 -11.6856 -20.6381 0 
431 1 -10.5575 -20.5922 0 
433 1 -9.43033 -20.5471 0 
435 1 -8.30402 -20.5013 0 
437 1 -7.17808 -20.455 0 
439 1 -6.05272 -20.4089 0 
342 1 -4.34666 -21.3282 0 
441 1 -4.92789 -20.3641 0 
344 1 -3.22266 -21.2857 0 
443 1 -3.80377 -20.3202 0 
346 1 -2.09938 -21.2434 0 
445 1 -2.68036 -20.2768 0 
348 1 -0.976076 -21.2029 0 
447 1 -1.55688 -20.2348 0 
350 1 0.146914 -21.1638 0 
352 1 1.26975 -21.1259 0 
354 1 2.3923 -21.0899 0 
356 1 3.51476 -21.0554 0 
358 1 4.63699 -21.0228 0 
360 1 5.75944 -20.9923 0 
362 1 6.88226 -20.9633 0 
364 1 8.00509 -20.9366 0 
366 1 9.12796 -20.9114 0 
368 1 10.2513 -20.887 0 
370 1 11.375 -20.8647 0 
372 1 12.4987 -20.8439 0 
374 1 13.622 -20.8242 0 
376 1 14.7458 -20.8064 0 
378 1 15.8701 -20.7892 0 
380 1 16.9947 -20.7733 0 
382 1 18.1193 -20.7583 0 
384 1 19.2441 -20.7449 0 
386 1 20.3689 -20.7325 0 
388 1 21.494 -20.7204 0 
390 1 22.6194 -20.7089 0 
392 1 23.7451 -20.6987 0 
394 1 24.871 -20.6887 0 
396 2 25.9969 -20.6804 0 
398 2 27.1238 -20.673 0 
400 2 28.251 -20.6661 0 
501 2 -27.5497 -19.2779 0 
503 2 -26.4202 -19.2417 0 
505 2 -25.2906 -19.2049 0 
406 2 -24.7023 -20.1579 0 
507 2 -24.1608 -19.1673 0 
408 1 -23.5715 -20.1185 0 
509 1 -23.029 -19.1258 0 
410 1 -22.4404 -20.0775 0 
511 1 -21.8979 -19.0837 0 
412 1 -21.3094 -20.0354 0 
513 1 -20.7665 -19.0414 0 
414 1 -20.1784 -19.9936 0 
416 1 -19.048 -19.9507 0 
418 1 -17.9175 -19.9073 0 
420 1 -16.7869 -19.8635 0 
422 1 -15.6575 -19.8189 0 
424 1 -14.5276 -19.774 0 
426 1 -13.3981 -19.7281 0 
428 1 -12.2699 -19.6815 0 
430 1 -11.1418 -19.6351 0 
432 1 -10.0137 -19.5885 0 
434 1 -8.88681 -19.5416 0 
436 1 -7.76077 -19.4946 0 
438 1 -6.63499 -19.4474 0 
440 1 -5.50935 -19.401 0 
442 1 -4.38492 -19.3553 0 
444 1 -3.26143 -19.3107 0 
446 1 -2.13788 -19.2672 0 
448 1 -1.0147 -19.2251 0 
449 1 -0.433782 -20.1942 0 
450 1 0.108509 -19.1853 0 
451 1 0.689 -20.1555 0 
452 1 1.23119 -19.1468 0 
453 1 1.81166 -20.1182 0 
454 1 2.35386 -19.1104 0 
455 1 2.93441 -20.0828 0 
456 1 3.47637 -19.0753 0 
457 1 4.05689 -20.0488 0 
459 1 5.17957 -20.0172 0 
461 1 6.30246 -19.9879 0 
463 1 7.42547 -19.9599 0 
465 1 8.5485 -19.9338 0 
467 1 9.67165 -19.9094 0 
469 1 10.7954 -19.8862 0 
471 1 11.9192 -19.8648 0 
473 1 13.0429 -19.8448 0 
475 1 14.1671 -19.8264 0 
477 1 15.2915 -19.8089 0 
479 1 16.416 -19.7926 0 
481 1 17.5408 -19.7774 0 
483 1 18.6659 -19.7635 0 
485 1 19.7912 -19.7507 0 
487 1 20.9164 -19.739 0 
489 1 22.042 -19.7276 0 
491 1 23.1682 -19.7167 0 
493 1 24.2945 -19.7071 0 
495 2 25.4205 -19.6978 0 
497 2 26.5477 -19.6905 0 
499 2 27.6751 -19.6838 0 
502 2 -27.0088 -18.2886 0 
504 2 -25.8793 -18.252 0 
506 2 -24.7497 -18.2147 0 
508 1 -23.6182 -18.1748 0 
510 1 -22.4868 -18.1322 0 
512 1 -21.3553 -18.0899 0 
514 1 -20.224 -18.0467 0 
515 1 -19.6354 -18.9981 0 
516 1 -19.0932 -18.0022 0 
517 1 -18.5049 -18.9545 0 
518 1 -17.9624 -17.9581 0 
519 1 -17.3742 -18.9104 0 
520 1 -16.8317 -17.9127 0 
521 1 -16.244 -18.8651 0 
523 1 -15.114 -18.8199 0 
525 1 -13.9844 -18.7738 0 
527 1 -12.8554 -18.7259 0 
529 1 -11.7266 -18.6786 0 
531 1 -10.5983 -18.6313 0 
533 1 -9.47083 -18.5833 0 
535 1 -8.34393 -18.5351 0 
537 1 -7.2176 -18.4866 0 
539 1 -6.09177 -18.439 0 
541 1 -4.96725 -18.3916 0 
543 1 -3.84342 -18.3452 0 
545 1 -2.71969 -18.3009 0 
547 1 -1.59594 -18.2569 0 
549 1 -0.472779 -18.2154 0 
551 1 0.649835 -18.1756 0 
553 1 1.77243 -18.1378 0 
555 1 2.89497 -18.102 0 
557 1 4.01763 -18.0678 0 
458 1 4.59916 -19.0424 0 
559 1 5.14081 -18.0362 0 
460 1 5.72214 -19.0118 0 
561 1 6.26409 -18.0065 0 
462 1 6.84475 -18.9835 0 
563 1 7.38704 -17.9794 0 
464 1 7.9678 -18.9565 0 
565 1 8.51061 -17.9535 0 
466 1 9.09129 -18.9314 0 
567 1 9.63435 -17.9291 0 
468 1 10.2148 -18.9078 0 
569 1 10.7587 -17.9069 0 
470 1 11.3388 -18.8858 0 
472 1 12.4631 -18.8652 0 
474 1 13.5876 -18.8463 0 
476 1 14.7124 -18.8288 0 
478 1 15.8373 -18.8117 0 
480 1 16.9624 -18.7962 0 
482 1 18.0877 -18.782 0 
484 1 19.2131 -18.7689 0 
486 1 20.3387 -18.7568 0 
488 1 21.4648 -18.746 0 
490 1 22.5913 -18.7351 0 
492 1 23.718 -18.7251 0 
494 1 24.8445 -18.7158 0 
496 2 25.9714 -18.7078 0 
498 2 27.0991 -18.7012 0 
500 2 28.2271 -18.6951 0 
601 2 -27.5979 -17.3354 0 
603 2 -26.4686 -17.2992 0 
605 2 -25.3391 -17.2621 0 
607 2 -24.2094 -17.2244 0 
609 1 -23.0777 -17.1818 0 
611 1 -21.9456 -17.139 0 
613 1 -20.8141 -17.0957 0 
615 1 -19.683 -17.0511 0 
617 1 -18.5516 -17.0063 0 
619 1 -17.4207 -16.961 0 
522 1 -15.7012 -17.8666 0 
621 1 -16.2899 -16.9145 0 
524 1 -14.5711 -17.8202 0 
623 1 -15.1592 -16.8675 0 
526 1 -13.4418 -17.7718 0 
625 1 -14.0293 -16.8188 0 
528 1 -12.3122 -17.7235 0 
627 1 -12.8991 -16.77 0 
530 1 -11.1832 -17.675 0 
532 1 -10.055 -17.626 0 
534 1 -8.92764 -17.5767 0 
536 1 -7.80133 -17.5271 0 
538 1 -6.67528 -17.4782 0 
540 1 -5.5499 -17.4291 0 
542 1 -4.42529 -17.3811 0 
544 1 -3.30118 -17.3349 0 
546 1 -2.17777 -17.29 0 
548 1 -1.05447 -17.2462 0 
550 1 0.068568 -17.2049 0 
552 1 1.19127 -17.1656 0 
554 1 2.31398 -17.1284 0 
556 1 3.43635 -17.0934 0 
558 1 4.55934 -17.0607 0 
560 1 5.68254 -17.0302 0 
562 1 6.80619 -17.0017 0 
564 1 7.92988 -16.9755 0 
566 1 9.05373 -16.9504 0 
568 1 10.1779 -16.9277 0 
571 1 11.8835 -17.8861 0 
570 1 11.3027 -16.9067 0 
573 1 13.0084 -17.8663 0 
572 1 12.4277 -16.8866 0 
575 1 14.1332 -17.8481 0 
574 1 13.5529 -16.8677 0 
577 1 15.2582 -17.8311 0 
576 1 14.6782 -16.8504 0 
579 1 16.3836 -17.8151 0 
578 1 15.804 -16.8341 0 
581 1 17.5093 -17.8006 0 
580 1 16.9301 -16.8192 0 
583 1 18.6353 -17.7871 0 
582 1 18.0565 -16.8058 0 
585 1 19.761 -17.775 0 
584 1 19.1832 -16.7932 0 
587 1 20.8874 -17.7642 0 
586 1 20.3099 -16.7823 0 
589 1 22.0142 -17.7534 0 
588 1 21.4368 -16.7717 0 
591 1 23.1414 -17.7433 0 
590 1 22.5642 -16.7616 0 
593 1 24.2681 -17.7337 0 
592 1 23.6915 -16.7516 0 
595 2 25.3948 -17.725 0 
594 1 24.8188 -16.7429 0 
596 2 25.9465 -16.7357 0 
597 2 26.5229 -17.7186 0 
598 2 27.0751 -16.7299 0 
599 2 27.6512 -17.7126 0 
600 2 28.2039 -16.7246 0 
602 2 -27.0583 -16.3463 0 
604 2 -25.929 -16.3096 0 
606 2 -24.7995 -16.2721 0 
608 1 -23.6687 -16.2317 0 
610 1 -22.5369 -16.189 0 
612 1 -21.405 -16.1452 0 
614 1 -20.2737 -16.1006 0 
616 1 -19.1424 -16.0559 0 
618 1 -18.0109 -16.0098 0 
620 1 -16.8796 -15.9634 0 
622 1 -15.7483 -15.9157 0 
624 1 -14.6177 -15.8668 0 
626 1 -13.4869 -15.8174 0 
628 1 -12.357 -15.7672 0 
629 1 -11.7693 -16.7202 0 
630 1 -11.2273 -15.7158 0 
631 1 -10.6407 -16.6702 0 
632 1 -10.0985 -15.6644 0 
633 1 -9.51266 -16.62 0 
634 1 -8.97096 -15.6123 0 
635 1 -8.38543 -16.5688 0 
637 1 -7.25877 -16.5182 0 
639 1 -6.13309 -16.4678 0 
641 1 -5.00807 -16.4182 0 
643 1 -3.88368 -16.37 0 
645 1 -2.76021 -16.3231 0 
647 1 -1.63705 -16.2779 0 
649 1 -0.51376 -16.2349 0 
651 1 0.609025 -16.1936 0 
653 1 1.73175 -16.1551 0 
655 1 2.8548 -16.1187 0 
657 1 3.97794 -16.0853 0 
659 1 5.1013 -16.0535 0 
661 1 6.22505 -16.0244 0 
663 1 7.34911 -15.9969 0 
665 1 8.47336 -15.9715 0 
667 1 9.59764 -15.9482 0 
669 1 10.7224 -15.9267 0 
671 1 11.8474 -15.9063 0 
673 1 12.9728 -15.8872 0 
675 1 14.0984 -15.8694 0 
677 1 15.2244 -15.8531 0 
679 1 16.3509 -15.8379 0 
681 1 17.4778 -15.8242 0 
683 1 18.6046 -15.8117 0 
685 1 19.7318 -15.8003 0 
687 1 20.8591 -15.7897 0 
689 1 21.9866 -15.7794 0 
691 1 23.1141 -15.7698 0 
693 1 24.242 -15.761 0 
695 2 25.3699 -15.7527 0 
697 2 26.4989 -15.7471 0 
699 2 27.6281 -15.742 0 
701 2 -27.6483 -15.3934 0 
703 2 -26.5193 -15.357 0 
705 2 -25.3901 -15.3199 0 
707 2 -24.2607 -15.282 0 
709 1 -23.1288 -15.2393 0 
711 1 -21.9969 -15.1957 0 
713 1 -20.8651 -15.1509 0 
715 1 -19.7334 -15.1058 0 
717 1 -18.6021 -15.0602 0 
719 1 -17.4703 -15.013 0 
721 1 -16.3389 -14.9651 0 
723 1 -15.2076 -14.9159 0 
725 1 -14.0765 -14.8661 0 
727 1 -12.9457 -14.8149 0 
729 1 -11.8157 -14.763 0 
731 1 -10.6863 -14.7105 0 
733 1 -9.55755 -14.6571 0 
636 1 -7.84387 -15.5601 0 
735 1 -8.42955 -14.6033 0 
638 1 -6.71741 -15.508 0 
737 1 -7.30252 -14.5497 0 
640 1 -5.59181 -15.4564 0 
739 1 -6.1765 -14.4963 0 
642 1 -4.46704 -15.4064 0 
644 1 -3.34296 -15.3575 0 
646 1 -2.21954 -15.31 0 
648 1 -1.09627 -15.2649 0 
650 1 0.0266097 -15.222 0 
652 1 1.14939 -15.1819 0 
654 1 2.27252 -15.1446 0 
656 1 3.39604 -15.1097 0 
658 1 4.51955 -15.0769 0 
660 1 5.64348 -15.0468 0 
662 1 6.76759 -15.0188 0 
664 1 7.8923 -14.9926 0 
666 1 9.01733 -14.9682 0 
668 1 10.1424 -14.9463 0 
670 1 11.2676 -14.9254 0 
672 1 12.3931 -14.9064 0 
674 1 13.519 -14.8884 0 
676 1 14.6451 -14.8719 0 
678 1 15.7716 -14.8565 0 
680 1 16.8986 -14.8424 0 
682 1 18.0258 -14.8296 0 
684 1 19.1532 -14.8183 0 
686 1 20.281 -14.8075 0 
688 1 21.4088 -14.7975 0 
690 1 22.5369 -14.7876 0 
692 1 23.6653 -14.7791 0 
694 1 24.7939 -14.771 0 
696 2 25.9226 -14.7642 0 
698 2 27.0521 -14.7592 0 
700 2 28.1818 -14.7547 0 
702 2 -27.11 -14.4044 0 
801 2 -27.7009 -13.4516 0 
704 2 -25.9811 -14.3676 0 
803 2 -26.5724 -13.4152 0 
706 2 -24.852 -14.3301 0 
805 2 -25.4437 -13.3781 0 
708 1 -23.7209 -14.2896 0 
807 2 -24.3146 -13.3401 0 
710 1 -22.5895 -14.2464 0 
809 1 -23.1832 -13.297 0 
712 1 -21.4579 -14.202 0 
714 1 -20.326 -14.1565 0 
716 1 -19.1941 -14.1109 0 
718 1 -18.0623 -14.0641 0 
720 1 -16.9304 -14.0156 0 
722 1 -15.7985 -13.9662 0 
724 1 -14.6671 -13.9156 0 
726 1 -13.5363 -13.8643 0 
728 1 -12.4054 -13.8117 0 
730 1 -11.2749 -13.7579 0 
732 1 -10.1455 -13.7035 0 
734 1 -9.01675 -13.6485 0 
736 1 -7.88875 -13.5931 0 
738 1 -6.76164 -13.5376 0 
740 1 -5.63579 -13.483 0 
741 1 -5.05104 -14.444 0 
742 1 -4.5111 -13.4298 0 
743 1 -3.92641 -14.3929 0 
744 1 -3.38708 -13.3779 0 
745 1 -2.80283 -14.3433 0 
746 1 -2.26343 -13.3283 0 
747 1 -1.67962 -14.296 0 
749 1 -0.556462 -14.251 0 
751 1 0.566513 -14.209 0 
753 1 1.68966 -14.1705 0 
755 1 2.81309 -14.1343 0 
757 1 3.93683 -14.1004 0 
759 1 5.06103 -14.0694 0 
761 1 6.18544 -14.0404 0 
763 1 7.31044 -14.0136 0 
765 1 8.43566 -13.9886 0 
767 1 9.56122 -13.9658 0 
769 1 10.6868 -13.9448 0 
771 1 11.8127 -13.925 0 
773 1 12.939 -13.9071 0 
775 1 14.0657 -13.8904 0 
777 1 15.1926 -13.875 0 
779 1 16.3198 -13.8606 0 
781 1 17.4474 -13.8475 0 
783 1 18.5752 -13.836 0 
785 1 19.7033 -13.8254 0 
787 1 20.8318 -13.8151 0 
789 1 21.9599 -13.8057 0 
791 1 23.0884 -13.7967 0 
793 1 24.2171 -13.7888 0 
795 2 25.3462 -13.7811 0 
797 2 26.4761 -13.7764 0 
799 2 27.6062 -13.772 0 
802 2 -27.164 -12.4626 0 
804 2 -26.0357 -12.4259 0 
806 2 -24.9071 -12.3884 0 
808 1 -23.7771 -12.3476 0 
810 1 -22.6462 -12.3042 0 
811 1 -22.0517 -13.2529 0 
812 1 -21.5146 -12.2594 0 
813 1 -20.9201 -13.2081 0 
814 1 -20.3828 -12.2143 0 
815 1 -19.7879 -13.1622 0 
816 1 -19.2502 -12.1677 0 
817 1 -18.6555 -13.1156 0 
818 1 -18.1179 -12.1195 0 
819 1 -17.5234 -13.0673 0 
821 1 -16.3914 -13.0177 0 
823 1 -15.2593 -12.9667 0 
825 1 -14.1277 -12.9146 0 
827 1 -12.9964 -12.8617 0 
829 1 -11.8655 -12.8074 0 
831 1 -10.735 -12.7514 0 
833 1 -9.60569 -12.6953 0 
835 1 -8.47705 -12.6384 0 
837 1 -7.34928 -12.5815 0 
839 1 -6.22202 -12.5241 0 
841 1 -5.09619 -12.4681 0 
843 1 -3.97155 -12.4138 0 
845 1 -2.84756 -12.3616 0 
748 1 -1.14008 -13.2811 0 
847 1 -1.72431 -12.3119 0 
849 1 -0.601202 -12.2654 0 
750 1 -0.0167365 -13.2367 0 
851 1 0.522314 -12.2223 0 
752 1 1.10644 -13.1963 0 
853 1 1.64586 -12.1833 0 
754 1 2.22978 -13.1589 0 
756 1 3.35388 -13.1241 0 
758 1 4.47853 -13.092 0 
760 1 5.60326 -13.0619 0 
762 1 6.72836 -13.0346 0 
764 1 7.85393 -13.009 0 
766 1 8.97975 -12.9856 0 
768 1 10.1055 -12.9639 0 
770 1 11.2316 -12.944 0 
772 1 12.3584 -12.9256 0 
774 1 13.4857 -12.9088 0 
776 1 14.6131 -12.8929 0 
778 1 15.741 -12.8785 0 
780 1 16.8688 -12.8656 0 
782 1 17.9971 -12.8536 0 
784 1 19.1254 -12.8428 0 
786 1 20.254 -12.833 0 
788 1 21.3829 -12.8235 0 
790 1 22.5117 -12.8144 0 
792 1 23.6409 -12.8065 0 
794 1 24.7704 -12.7993 0 
796 2 25.9 -12.7934 0 
798 2 27.0306 -12.7893 0 
800 2 28.1612 -12.7854 0 
901 2 -27.7557 -11.5099 0 
903 2 -26.6279 -11.4735 0 
905 2 -25.4997 -11.4364 0 
907 2 -24.3713 -11.3985 0 
909 1 -23.2405 -11.3554 0 
911 1 -22.1095 -11.3115 0 
913 1 -20.9779 -11.2663 0 
915 1 -19.8457 -11.2205 0 
917 1 -18.7135 -11.1724 0 
820 1 -16.9856 -12.07 0 
919 1 -17.5813 -11.1232 0 
822 1 -15.8533 -12.0193 0 
921 1 -16.4488 -11.0726 0 
824 1 -14.721 -11.9667 0 
923 1 -15.3163 -11.0203 0 
826 1 -13.5889 -11.9132 0 
828 1 -12.4576 -11.858 0 
830 1 -11.3269 -11.8015 0 
832 1 -10.1963 -11.7439 0 
834 1 -9.06664 -11.6858 0 
836 1 -7.93788 -11.6265 0 
838 1 -6.81029 -11.568 0 
840 1 -5.6835 -11.5089 0 
842 1 -4.55806 -11.4515 0 
844 1 -3.43371 -11.3962 0 
846 1 -2.31008 -11.3436 0 
848 1 -1.18639 -11.2947 0 
850 1 -0.062994 -11.2493 0 
852 1 1.06082 -11.2081 0 
855 1 2.76977 -12.1475 0 
854 1 2.18517 -11.1709 0 
857 1 3.89429 -12.1147 0 
856 1 3.30993 -11.137 0 
859 1 5.01919 -12.0837 0 
858 1 4.43496 -11.1053 0 
861 1 6.14476 -12.0554 0 
860 1 5.56094 -11.0762 0 
863 1 7.2706 -12.0296 0 
862 1 6.68722 -11.0494 0 
865 1 8.39696 -12.0054 0 
864 1 7.81361 -11.0252 0 
867 1 9.52374 -11.9832 0 
869 1 10.6505 -11.9626 0 
871 1 11.7775 -11.9441 0 
873 1 12.9051 -11.9272 0 
875 1 14.0331 -11.9109 0 
877 1 15.1616 -11.8966 0 
879 1 16.2903 -11.8829 0 
881 1 17.4185 -11.8713 0 
883 1 18.5474 -11.8602 0 
885 1 19.6766 -11.8503 0 
887 1 20.8058 -11.8411 0 
889 1 21.935 -11.8323 0 
891 1 23.0647 -11.8244 0 
893 1 24.1943 -11.8174 0 
895 2 25.3239 -11.8103 0 
897 2 26.4549 -11.8064 0 
899 2 27.586 -11.8028 0 
902 2 -27.2202 -10.5209 0 
904 2 -26.0925 -10.4842 0 
906 2 -24.9646 -10.4468 0 
908 1 -23.8354 -10.4067 0 
910 1 -22.705 -10.3634 0 
912 1 -21.5742 -10.3189 0 
914 1 -20.4424 -10.2737 0 
916 1 -19.3105 -10.2261 0 
918 1 -18.1785 -10.1771 0 
920 1 -17.0456 -10.1272 0 
922 1 -15.9129 -10.0746 0 
924 1 -14.7804 -10.0203 0 
925 1 -14.1839 -10.9661 0 
926 1 -13.6478 -9.96461 0 
927 1 -13.0516 -10.9103 0 
928 1 -12.5152 -9.90654 0 
929 1 -11.92 -10.853 0 
930 1 -11.383 -9.84774 0 
931 1 -10.7885 -10.7949 0 
933 1 -9.65764 -10.735 0 
935 1 -8.52841 -10.6741 0 
937 1 -7.39957 -10.6132 0 
939 1 -6.27226 -10.5521 0 
941 1 -5.14599 -10.4914 0 
943 1 -4.02067 -10.4325 0 
945 1 -2.89621 -10.3765 0 
947 1 -1.77244 -10.3247 0 
949 1 -0.649024 -10.2767 0 
951 1 0.474717 -10.2333 0 
953 1 1.59903 -10.1944 0 
955 1 2.72441 -10.1591 0 
957 1 3.85012 -10.1263 0 
959 1 4.97637 -10.0969 0 
961 1 6.10316 -10.0693 0 
963 1 7.23033 -10.0446 0 
965 1 8.35784 -10.0216 0 
866 1 8.94064 -11.0025 0 
967 1 9.486 -10.0005 0 
868 1 10.0682 -10.9815 0 
969 1 10.6147 -9.98101 0 
870 1 11.1962 -10.9624 0 
971 1 11.7436 -9.96322 0 
872 1 12.3246 -10.9453 0 
973 1 12.8727 -9.94718 0 
874 1 13.4529 -10.9294 0 
975 1 14.0018 -9.93217 0 
876 1 14.5819 -10.9143 0 
977 1 15.1313 -9.91839 0 
878 1 15.711 -10.9007 0 
979 1 16.2612 -9.90564 0 
880 1 16.8403 -10.8881 0 
981 1 17.391 -9.8943 0 
882 1 17.9693 -10.8776 0 
983 1 18.5209 -9.88455 0 
884 1 19.0987 -10.8674 0 
985 1 19.6509 -9.8754 0 
886 1 20.2283 -10.8583 0 
987 1 20.7812 -9.86726 0 
888 1 21.3583 -10.8499 0 
890 1 22.4884 -10.8424 0 
989 1 21.9121 -9.85976 0 
892 1 23.6188 -10.8351 0 
991 1 23.0428 -9.85309 0 
894 1 24.749 -10.8287 0 
993 1 24.1736 -9.84642 0 
896 2 25.8793 -10.8234 0 
995 2 25.3037 -9.84035 0 
898 2 27.0108 -10.8201 0 
997 2 26.4357 -9.83726 0 
900 2 28.1423 -10.817 0 
999 2 27.5677 -9.8344 0 
1001 2 -27.8125 -9.56805 0 
1003 2 -26.6854 -9.5318 0 
1005 2 -25.5581 -9.49477 0 
1007 2 -24.4305 -9.45693 0 
1009 1 -23.3008 -9.415 0 
1011 1 -22.1704 -9.3713 0 
1013 1 -21.0394 -9.32672 0 
1015 1 -19.908 -9.28007 0 
1017 1 -18.7762 -9.23139 0 
1019 1 -17.6438 -9.18215 0 
1021 1 -16.5114 -9.13001 0 
1023 1 -15.3789 -9.07587 0 
1025 1 -14.2461 -9.02014 0 
1027 1 -13.1131 -8.96244 0 
1029 1 -11.9802 -8.90253 0 
932 1 -10.2515 -9.78681 0 
1031 1 -10.8479 -8.84115 0 
934 1 -9.12099 -9.724 0 
1033 1 -9.71576 -8.77691 0 
936 1 -7.99084 -9.6612 0 
1035 1 -8.58429 -8.71199 0 
938 1 -6.86223 -9.59718 0 
940 1 -5.73523 -9.53352 0 
942 1 -4.60941 -9.47117 0 
944 1 -3.48433 -9.41147 0 
946 1 -2.36024 -9.35576 0 
948 1 -1.23658 -9.30477 0 
950 1 -0.11272 -9.25885 0 
952 1 1.01197 -9.21775 0 
954 1 2.13752 -9.18112 0 
956 1 3.26343 -9.14729 0 
958 1 4.39039 -9.11703 0 
960 1 5.51789 -9.0893 0 
962 1 6.64625 -9.06399 0 
964 1 7.77472 -9.04076 0 
966 1 8.90362 -9.01927 0 
968 1 10.0329 -8.99954 0 
970 1 11.1625 -8.98115 0 
972 1 12.2922 -8.9647 0 
974 1 13.4221 -8.94988 0 
976 1 14.5522 -8.93567 0 
978 1 15.6825 -8.9234 0 
980 1 16.8132 -8.91156 0 
982 1 17.9439 -8.90155 0 
984 1 19.0743 -8.89252 0 
986 1 20.205 -8.88415 0 
988 1 21.336 -8.87707 0 
990 1 22.4673 -8.87065 0 
992 1 23.5983 -8.86433 0 
994 1 24.7294 -8.85844 0 
996 2 25.8608 -8.85435 0 
998 2 26.9933 -8.85174 0 
1000 2 28.1257 -8.84931 0 
1002 2 -27.2783 -8.57905 0 
1101 2 -27.8711 -7.62598 0 
1004 2 -26.1516 -8.54247 0 
1103 2 -26.7449 -7.58983 0 
1006 2 -25.0246 -8.50509 0 
1105 2 -25.6186 -7.5529 0 
1008 1 -23.8962 -8.46526 0 
1107 2 -24.492 -7.51516 0 
1010 1 -22.7669 -8.42306 0 
1012 1 -21.6367 -8.37909 0 
1014 1 -20.5059 -8.33371 0 
1016 1 -19.3748 -8.28595 0 
1018 1 -18.2431 -8.23684 0 
1020 1 -17.1115 -8.18587 0 
1022 1 -15.9792 -8.13231 0 
1024 1 -14.8465 -8.07706 0 
1026 1 -13.7135 -8.01974 0 
1028 1 -12.5802 -7.95993 0 
1030 1 -11.4467 -7.89767 0 
1032 1 -10.3137 -7.83299 0 
1034 1 -9.18116 -7.76588 0 
1036 1 -8.05003 -7.69703 0 
1037 1 -7.45444 -8.64527 0 
1038 1 -6.91993 -7.62678 0 
1039 1 -6.32625 -8.57836 0 
1041 1 -5.19978 -8.51241 0 
1043 1 -4.07415 -8.44887 0 
1045 1 -2.94946 -8.38835 0 
1047 1 -1.82552 -8.33357 0 
1049 1 -0.701228 -8.28449 0 
1051 1 0.423822 -8.24133 0 
1053 1 1.54981 -8.20307 0 
1055 1 2.67637 -8.16806 0 
1057 1 3.80387 -8.13714 0 
1059 1 4.93213 -8.10889 0 
1061 1 6.06113 -8.08327 0 
1063 1 7.19038 -8.05949 0 
1065 1 8.32027 -8.03794 0 
1067 1 9.45041 -8.01779 0 
1069 1 10.5809 -7.99925 0 
1071 1 11.7113 -7.98218 0 
1073 1 12.8419 -7.96719 0 
1075 1 13.9727 -7.95331 0 
1077 1 15.1041 -7.94055 0 
1079 1 16.2351 -7.92914 0 
1081 1 17.3664 -7.91865 0 
1083 1 18.4975 -7.90935 0 
1085 1 19.629 -7.90131 0 
1087 1 20.7604 -7.89402 0 
1089 1 21.8919 -7.88798 0 
1091 1 23.0234 -7.88198 0 
1093 1 24.1547 -7.87636 0 
1095 2 25.2861 -7.87134 0 
1097 2 26.419 -7.86899 0 
1099 2 27.5519 -7.8668 0 
1102 2 -27.3381 -6.63684 0 
1104 2 -26.2124 -6.60035 0 
1106 2 -25.0865 -6.56307 0 
1108 1 -23.9593 -6.52399 0 
1109 1 -23.3633 -7.47373 0 
1110 1 -22.8314 -6.48229 0 
1111 1 -22.2341 -7.43104 0 
1112 1 -21.7028 -6.43932 0 
1113 1 -21.1043 -7.38678 0 
1114 1 -20.5739 -6.39389 0 
1115 1 -19.9744 -7.34026 0 
1116 1 -19.4444 -6.34702 0 
1117 1 -18.8435 -7.29198 0 
1119 1 -17.7122 -7.24145 0 
1121 1 -16.5806 -7.18923 0 
1123 1 -15.4484 -7.13466 0 
1125 1 -14.3158 -7.07784 0 
1127 1 -13.1828 -7.01871 0 
1129 1 -12.0491 -6.95668 0 
1131 1 -10.9152 -6.89159 0 
1133 1 -9.78148 -6.82305 0 
1135 1 -8.64871 -6.75212 0 
1137 1 -7.51705 -6.67942 0 
1139 1 -6.38678 -6.60464 0 
1040 1 -5.79173 -7.55645 0 
1141 1 -5.25911 -6.53081 0 
1042 1 -4.66557 -7.4883 0 
1143 1 -4.13387 -6.45953 0 
1044 1 -3.54087 -7.42305 0 
1046 1 -2.41635 -7.36321 0 
1048 1 -1.29181 -7.31096 0 
1050 1 -0.166508 -7.26479 0 
1052 1 0.959717 -7.22489 0 
1054 1 2.08698 -7.18928 0 
1056 1 3.21549 -7.15719 0 
1058 1 4.34479 -7.12847 0 
1060 1 5.47477 -7.10228 0 
1062 1 6.60523 -7.07809 0 
1064 1 7.73622 -7.05639 0 
1066 1 8.86739 -7.03564 0 
1068 1 9.99877 -7.01733 0 
1070 1 11.1301 -6.99979 0 
1072 1 12.2617 -6.98458 0 
1074 1 13.3933 -6.97063 0 
1076 1 14.525 -6.958 0 
1078 1 15.657 -6.94619 0 
1080 1 16.7888 -6.9358 0 
1082 1 17.9205 -6.92618 0 
1084 1 19.0525 -6.91827 0 
1086 1 20.1846 -6.91079 0 
1088 1 21.3168 -6.90476 0 
1090 1 22.4488 -6.89917 0 
1092 1 23.5808 -6.89377 0 
1094 1 24.7128 -6.88949 0 
1096 2 25.8451 -6.88616 0 
1098 2 26.9784 -6.88422 0 
1100 2 28.1116 -6.88241 0 
1201 2 -27.9311 -5.68349 0 
1203 2 -26.806 -5.64742 0 