ITEM: TIMESTEP
2000
ITEM: NUMBER OF ATOMS
2850
ITEM: BOX BOUNDS ff ff pp
-42.092 42.092
-42.092 42.092
-0.280613 0.280613
ITEM: ATOMS id type xu yu zu 
1 2 -27.3398 -28.9988 0 
3 2 -26.2107 -28.9642 0 
5 2 -25.0816 -28.9291 0 
7 2 -23.9525 -28.8936 0 
9 2 -22.8235 -28.8577 0 
11 2 -21.6944 -28.8213 0 
13 2 -20.5655 -28.7844 0 
15 2 -19.4366 -28.7472 0 
17 2 -18.3079 -28.7095 0 
19 2 -17.1793 -28.6715 0 
21 2 -16.0508 -28.6331 0 
23 2 -14.9226 -28.5944 0 
25 2 -13.7947 -28.5554 0 
27 2 -12.667 -28.5163 0 
29 2 -11.5396 -28.477 0 
31 2 -10.4126 -28.4376 0 
33 2 -9.28592 -28.3982 0 
35 2 -8.15967 -28.3589 0 
37 2 -7.03386 -28.3198 0 
39 2 -5.90848 -28.281 0 
2 2 -26.7941 -28.0086 0 
4 2 -25.6649 -27.9736 0 
6 2 -24.5357 -27.9381 0 
8 2 -23.4065 -27.902 0 
10 2 -22.2773 -27.8656 0 
12 2 -21.1481 -27.8286 0 
14 2 -20.019 -27.7912 0 
16 2 -18.89 -27.7533 0 
18 2 -17.7611 -27.715 0 
20 2 -16.6324 -27.6763 0 
22 2 -15.5039 -27.6373 0 
24 2 -14.3755 -27.5979 0 
26 2 -13.2475 -27.5582 0 
28 2 -12.1197 -27.5183 0 
30 2 -10.9923 -27.4783 0 
32 2 -9.86522 -27.4382 0 
34 2 -8.73856 -27.3981 0 
36 2 -7.61233 -27.3581 0 
38 2 -6.48656 -27.3184 0 
40 2 -5.36126 -27.2789 0 
41 2 -4.78357 -28.2426 0 
42 2 -4.23645 -27.24 0 
43 2 -3.65912 -28.2046 0 
44 2 -3.11213 -27.2015 0 
45 2 -2.53513 -28.1673 0 
46 2 -1.98828 -27.1638 0 
47 2 -1.41159 -28.1307 0 
48 2 -0.8649 -27.1269 0 
49 2 -0.288464 -28.095 0 
51 2 0.834263 -28.0602 0 
53 2 1.95663 -28.0264 0 
55 2 3.07869 -27.9937 0 
57 2 4.20048 -27.9622 0 
59 2 5.32207 -27.9319 0 
61 2 6.4435 -27.9029 0 
63 2 7.56483 -27.8752 0 
65 2 8.68613 -27.8488 0 
67 2 9.80743 -27.8237 0 
69 2 10.9288 -27.8 0 
71 2 12.0503 -27.7775 0 
73 2 13.1719 -27.7563 0 
75 2 14.2937 -27.7363 0 
77 2 15.4157 -27.7174 0 
79 2 16.538 -27.6997 0 
81 2 17.6605 -27.683 0 
83 2 18.7832 -27.6673 0 
85 2 19.9063 -27.6526 0 
87 2 21.0296 -27.6388 0 
89 2 22.1532 -27.6258 0 
91 2 23.2771 -27.6136 0 
93 2 24.4012 -27.6022 0 
95 2 25.5256 -27.5914 0 
97 2 26.6503 -27.5812 0 
99 2 27.7752 -27.5717 0 
101 2 -27.378 -27.0533 0 
103 2 -26.2487 -27.0183 0 
102 2 -26.833 -26.0633 0 
105 2 -25.1194 -26.9828 0 
104 2 -25.7037 -26.0278 0 
107 2 -23.9901 -26.9468 0 
106 2 -24.5742 -25.9918 0 
109 2 -22.8607 -26.9102 0 
108 1 -23.4442 -25.9544 0 
111 2 -21.7314 -26.8732 0 
113 2 -20.6021 -26.8357 0 
115 2 -19.4729 -26.7977 0 
117 2 -18.3437 -26.7591 0 
119 2 -17.2147 -26.7202 0 
121 2 -16.0858 -26.6808 0 
123 2 -14.9572 -26.641 0 
125 2 -13.8287 -26.6009 0 
127 2 -12.7006 -26.5605 0 
129 2 -11.5727 -26.5198 0 
131 2 -10.4452 -26.479 0 
133 2 -9.31813 -26.4382 0 
135 2 -8.19146 -26.3973 0 
137 2 -7.06526 -26.3566 0 
139 2 -5.93954 -26.3162 0 
141 2 -4.81433 -26.2762 0 
143 2 -3.68963 -26.2366 0 
145 2 -2.56545 -26.1977 0 
147 2 -1.44177 -26.1596 0 
50 2 0.258046 -27.0909 0 
149 2 -0.318563 -26.1224 0 
52 2 1.38059 -27.056 0 
151 2 0.804196 -26.0862 0 
54 2 2.50279 -27.0222 0 
153 2 1.92656 -26.0512 0 
56 2 3.62468 -26.9896 0 
155 2 3.04857 -26.0174 0 
58 2 4.74633 -26.9582 0 
157 2 4.1703 -25.9849 0 
60 2 5.86779 -26.9282 0 
159 2 5.2918 -25.9538 0 
62 2 6.98913 -26.8996 0 
64 2 8.11041 -26.8723 0 
66 2 9.23169 -26.8465 0 
68 2 10.353 -26.822 0 
70 2 11.4745 -26.7989 0 
72 2 12.596 -26.7771 0 
74 2 13.7178 -26.7566 0 
76 2 14.8398 -26.7373 0 
78 2 15.962 -26.7192 0 
80 2 17.0845 -26.7023 0 
82 2 18.2073 -26.6863 0 
84 2 19.3304 -26.6714 0 
86 2 20.4538 -26.6575 0 
88 2 21.5774 -26.6444 0 
90 2 22.7014 -26.6321 0 
92 2 23.8256 -26.6206 0 
94 2 24.9501 -26.6098 0 
96 2 26.0749 -26.5996 0 
98 2 27.2 -26.5901 0 
100 2 28.3253 -26.5811 0 
201 2 -27.4179 -25.1085 0 
203 2 -26.2885 -25.0731 0 
205 2 -25.159 -25.0372 0 
207 2 -24.0295 -25.0007 0 
209 1 -22.8993 -24.9623 0 
110 1 -22.3155 -25.9172 0 
211 1 -21.7702 -24.9243 0 
112 1 -21.1863 -25.8802 0 
213 1 -20.6408 -24.8874 0 
114 1 -20.056 -25.8429 0 
215 1 -19.5112 -24.8484 0 
116 1 -18.9268 -25.8036 0 
217 1 -18.3809 -24.8085 0 
118 1 -17.7972 -25.7646 0 
120 1 -16.668 -25.724 0 
122 1 -15.5396 -25.6836 0 
124 1 -14.411 -25.6426 0 
126 1 -13.2831 -25.6022 0 
128 1 -12.1548 -25.5604 0 
130 1 -11.0264 -25.5194 0 
132 1 -9.89939 -25.4787 0 
134 1 -8.77221 -25.4376 0 
136 1 -7.64632 -25.3922 0 
138 1 -6.52096 -25.3517 0 
140 1 -5.39501 -25.3124 0 
142 1 -4.26995 -25.2702 0 
144 1 -3.14586 -25.2288 0 
146 1 -2.02076 -25.1925 0 
148 1 -0.897114 -25.1522 0 
150 1 0.225043 -25.1156 0 
152 1 1.34779 -25.0804 0 
154 1 2.46976 -25.0446 0 
156 1 3.59077 -25.0109 0 
158 1 4.71306 -24.9784 0 
160 1 5.83472 -24.9479 0 
161 2 6.41316 -25.9242 0 
162 1 6.95643 -24.9206 0 
163 2 7.53443 -25.896 0 
164 1 8.07843 -24.8915 0 
165 2 8.65568 -25.8693 0 
167 2 9.77697 -25.844 0 
166 1 9.20061 -24.8646 0 
169 2 10.8984 -25.8202 0 
168 1 10.3221 -24.84 0 
171 2 12.0199 -25.7978 0 
170 1 11.4434 -24.8177 0 
173 2 13.1416 -25.7768 0 
175 2 14.2636 -25.7571 0 
177 2 15.3858 -25.7386 0 
179 2 16.5083 -25.7213 0 
181 2 17.6311 -25.7052 0 
183 2 18.7543 -25.6901 0 
185 2 19.8777 -25.6759 0 
187 2 21.0014 -25.6627 0 
189 2 22.1254 -25.6504 0 
191 2 23.2498 -25.6388 0 
193 2 24.3744 -25.628 0 
195 2 25.4993 -25.6179 0 
197 2 26.6245 -25.6084 0 
199 2 27.75 -25.5994 0 
202 2 -26.8739 -24.1187 0 
204 2 -25.7444 -24.0828 0 
206 2 -24.6148 -24.0464 0 
208 1 -23.4857 -24.0098 0 
210 1 -22.3561 -23.9699 0 
212 1 -21.2259 -23.9319 0 
214 1 -20.0957 -23.8934 0 
216 1 -18.9659 -23.853 0 
219 1 -17.2506 -24.7677 0 
218 1 -17.835 -23.8124 0 
221 1 -16.1217 -24.7263 0 
220 1 -16.7054 -23.7704 0 
222 1 -15.5774 -23.7283 0 
223 1 -14.9938 -24.685 0 
224 1 -14.4495 -23.6862 0 
225 1 -13.8659 -24.6439 0 
227 1 -12.7386 -24.6022 0 
229 1 -11.6086 -24.5605 0 
231 1 -10.4796 -24.5174 0 
233 1 -9.35326 -24.4765 0 
235 1 -8.22758 -24.4321 0 
237 1 -7.10027 -24.3874 0 
239 1 -5.97429 -24.3479 0 
241 1 -4.85089 -24.3059 0 
243 1 -3.72672 -24.2622 0 
245 1 -2.60062 -24.2243 0 
247 1 -1.47716 -24.1844 0 
249 1 -0.353024 -24.1443 0 
251 1 0.769472 -24.1078 0 
253 1 1.89075 -24.0712 0 
255 1 3.0126 -24.036 0 
257 1 4.13458 -24.0045 0 
259 1 5.25676 -23.9724 0 
261 1 6.37896 -23.9436 0 
263 1 7.50065 -23.9142 0 
265 1 8.62316 -23.8868 0 
267 1 9.74475 -23.8599 0 
269 1 10.8653 -23.8368 0 
271 1 11.9868 -23.8159 0 
172 1 12.5653 -24.7966 0 
273 1 13.1089 -23.7959 0 
174 1 13.6874 -24.7771 0 
275 1 14.2315 -23.7763 0 
176 1 14.8092 -24.7575 0 
277 1 15.3535 -23.7584 0 
178 1 15.9318 -24.7397 0 
279 1 16.4758 -23.7409 0 
180 1 17.0548 -24.7227 0 
281 1 17.5991 -23.7259 0 
182 1 18.1775 -24.7083 0 
283 1 18.7221 -23.7121 0 
184 1 19.3005 -24.6942 0 
285 1 19.8456 -23.6987 0 
186 1 20.4246 -24.6809 0 
287 1 20.9703 -23.6867 0 
188 1 21.5496 -24.669 0 
289 1 22.0953 -23.6748 0 
190 1 22.674 -24.6561 0 
291 1 23.2201 -23.6628 0 
192 1 23.7979 -24.6451 0 
293 1 24.3458 -23.6537 0 
194 1 24.9233 -24.6352 0 
295 2 25.4729 -23.6443 0 
196 2 26.0488 -24.6264 0 
198 2 27.1745 -24.6176 0 
200 2 28.3003 -24.6093 0 
301 2 -27.4598 -23.1644 0 
303 2 -26.3303 -23.1287 0 
305 2 -25.2007 -23.0924 0 
307 2 -24.071 -23.0555 0 
309 1 -22.9408 -23.0171 0 
311 1 -21.8099 -22.9777 0 
313 1 -20.6801 -22.9389 0 
315 1 -19.5513 -22.8985 0 
317 1 -18.4212 -22.8588 0 
319 1 -17.2915 -22.8163 0 
321 1 -16.1627 -22.7732 0 
323 1 -15.0339 -22.7306 0 
226 1 -13.3219 -23.6442 0 
325 1 -13.9042 -22.687 0 
327 1 -12.7758 -22.6446 0 
228 1 -12.1931 -23.6027 0 
329 1 -11.6487 -22.601 0 
230 1 -11.0638 -23.5587 0 
331 1 -10.521 -22.5575 0 
232 1 -9.93498 -23.5148 0 
333 1 -9.39304 -22.5118 0 
234 1 -8.80962 -23.4716 0 
236 1 -7.68393 -23.4275 0 
238 1 -6.55541 -23.3835 0 
240 1 -5.43128 -23.3394 0 
242 1 -4.30837 -23.297 0 
244 1 -3.18247 -23.2573 0 
246 1 -2.05851 -23.2157 0 
248 1 -0.934029 -23.1767 0 
250 1 0.190575 -23.1366 0 
252 1 1.31209 -23.098 0 
254 1 2.43375 -23.0629 0 
256 1 3.55599 -23.029 0 
258 1 4.67778 -22.9978 0 
260 1 5.80023 -22.9678 0 
262 1 6.92202 -22.937 0 
264 1 8.04412 -22.9085 0 
266 1 9.16634 -22.8815 0 
268 1 10.2886 -22.8559 0 
270 1 11.4095 -22.834 0 
272 1 12.5304 -22.8134 0 
274 1 13.6525 -22.7957 0 
276 1 14.7751 -22.7758 0 
278 1 15.898 -22.7587 0 
280 1 17.0218 -22.7432 0 
282 1 18.145 -22.7295 0 
284 1 19.2688 -22.7163 0 
286 1 20.3933 -22.7042 0 
288 1 21.5184 -22.6934 0 
290 1 22.6438 -22.6821 0 
292 1 23.7704 -22.6718 0 
294 1 24.8964 -22.6623 0 
297 2 26.5987 -23.6355 0 
296 2 26.0228 -22.6533 0 
299 2 27.7248 -23.6273 0 
298 2 27.149 -22.6452 0 
300 2 28.2755 -22.6376 0 
302 2 -26.9167 -22.1747 0 
304 2 -25.7871 -22.1385 0 
306 2 -24.6574 -22.1018 0 
308 1 -23.5271 -22.0632 0 
310 1 -22.3968 -22.0251 0 
312 1 -21.2659 -21.9848 0 
314 1 -20.1361 -21.9443 0 
316 1 -19.0061 -21.9048 0 
318 1 -17.8764 -21.8631 0 
320 1 -16.7471 -21.8188 0 
322 1 -15.6185 -21.7749 0 
324 1 -14.4895 -21.7321 0 
326 1 -13.36 -21.6885 0 
328 1 -12.2313 -21.6436 0 
330 1 -11.1034 -21.5996 0 
332 1 -9.97601 -21.5554 0 
334 1 -8.84843 -21.5076 0 
335 1 -8.26681 -22.4667 0 
336 1 -7.72236 -21.4619 0 
337 1 -7.14048 -22.4235 0 
338 1 -6.5977 -21.4154 0 
339 1 -6.01444 -22.3751 0 
340 1 -5.47006 -21.3698 0 
341 1 -4.88887 -22.3314 0 
343 1 -3.76274 -22.2918 0 
345 1 -2.63855 -22.2483 0 
347 1 -1.51394 -22.2083 0 
349 1 -0.390524 -22.1683 0 
351 1 0.732246 -22.1271 0 
353 1 1.85514 -22.09 0 
355 1 2.97724 -22.0551 0 
357 1 4.09958 -22.0225 0 
359 1 5.2211 -21.992 0 
361 1 6.34279 -21.9609 0 
363 1 7.46494 -21.9311 0 
365 1 8.5863 -21.903 0 
367 1 9.70834 -21.8768 0 
369 1 10.8307 -21.8523 0 
371 1 11.9531 -21.831 0 
373 1 13.0756 -21.8124 0 
375 1 14.1973 -21.7938 0 
377 1 15.32 -21.7757 0 
379 1 16.4434 -21.7608 0 
381 1 17.5679 -21.7454 0 
383 1 18.6919 -21.7328 0 
385 1 19.8164 -21.7214 0 
387 1 20.9425 -21.7117 0 
389 1 22.0683 -21.7003 0 
391 1 23.1942 -21.6899 0 
393 1 24.3199 -21.6797 0 
395 2 25.4466 -21.6709 0 
397 2 26.573 -21.6629 0 
399 2 27.6998 -21.6554 0 
401 2 -27.5037 -21.2208 0 
403 2 -26.3741 -21.1849 0 
402 2 -26.9617 -20.2313 0 
405 2 -25.2445 -21.1483 0 
404 2 -25.8321 -20.1949 0 
407 2 -24.1147 -21.111 0 
409 1 -22.983 -21.0715 0 
411 1 -21.8525 -21.0319 0 
413 1 -20.722 -20.9911 0 
415 1 -19.5922 -20.9505 0 
417 1 -18.4631 -20.9094 0 
419 1 -17.3332 -20.8658 0 
421 1 -16.2032 -20.8203 0 
423 1 -15.0731 -20.7761 0 
425 1 -13.9443 -20.7326 0 
427 1 -12.8159 -20.688 0 
429 1 -11.6859 -20.6424 0 
431 1 -10.5574 -20.5972 0 
433 1 -9.43095 -20.5504 0 
435 1 -8.30386 -20.502 0 
437 1 -7.17756 -20.454 0 
439 1 -6.05125 -20.409 0 
342 1 -4.34256 -21.326 0 
441 1 -4.92515 -20.3632 0 
344 1 -3.21825 -21.2821 0 
443 1 -3.7999 -20.3163 0 
346 1 -2.09388 -21.2409 0 
445 1 -2.67461 -20.2736 0 
348 1 -0.970486 -21.1989 0 
447 1 -1.55115 -20.2311 0 
350 1 0.15214 -21.1572 0 
352 1 1.27524 -21.1182 0 
354 1 2.39807 -21.0801 0 
356 1 3.52044 -21.0474 0 
358 1 4.64251 -21.0155 0 
360 1 5.76382 -20.9839 0 
362 1 6.88504 -20.9534 0 
364 1 8.0061 -20.9246 0 
366 1 9.1281 -20.898 0 
368 1 10.2501 -20.8721 0 
370 1 11.3729 -20.8496 0 
372 1 12.4962 -20.8289 0 
374 1 13.6194 -20.8102 0 
376 1 14.7421 -20.7926 0 
378 1 15.8655 -20.7768 0 
380 1 16.9884 -20.763 0 
382 1 18.1132 -20.7492 0 
384 1 19.239 -20.7375 0 
386 1 20.3651 -20.7287 0 
388 1 21.4899 -20.7175 0 
390 1 22.6163 -20.7069 0 
392 1 23.743 -20.697 0 
394 1 24.8698 -20.6892 0 
396 2 25.9969 -20.6804 0 
398 2 27.1238 -20.673 0 
400 2 28.251 -20.6661 0 
501 2 -27.5497 -19.2779 0 
503 2 -26.4202 -19.2417 0 
505 2 -25.2906 -19.2049 0 
406 2 -24.7023 -20.1579 0 
507 2 -24.1608 -19.1673 0 
408 1 -23.5711 -20.1193 0 
509 1 -23.0292 -19.1271 0 
410 1 -22.4406 -20.0793 0 
511 1 -21.8983 -19.0877 0 
412 1 -21.3093 -20.0391 0 
513 1 -20.7673 -19.0467 0 
414 1 -20.1783 -19.9978 0 
416 1 -19.049 -19.9552 0 
418 1 -17.9197 -19.9128 0 
420 1 -16.7891 -19.8676 0 
422 1 -15.659 -19.822 0 
424 1 -14.529 -19.7762 0 
426 1 -13.4004 -19.7318 0 
428 1 -12.2707 -19.6872 0 
430 1 -11.1407 -19.6393 0 
432 1 -10.0125 -19.5914 0 
434 1 -8.88623 -19.5432 0 
436 1 -7.75921 -19.4947 0 
438 1 -6.63168 -19.447 0 
440 1 -5.50605 -19.3999 0 
442 1 -4.38186 -19.3516 0 
444 1 -3.25621 -19.3078 0 
446 1 -2.13186 -19.2626 0 
448 1 -1.0099 -19.2181 0 
449 1 -0.428617 -20.1875 0 
450 1 0.113013 -19.1768 0 
451 1 0.69412 -20.1472 0 
452 1 1.23587 -19.1362 0 
453 1 1.81618 -20.1082 0 
454 1 2.35975 -19.0996 0 
455 1 2.94004 -20.0723 0 
456 1 3.48304 -19.0633 0 
457 1 4.06282 -20.0385 0 
459 1 5.18465 -20.0069 0 
461 1 6.30619 -19.9756 0 
463 1 7.42739 -19.9455 0 
465 1 8.54983 -19.9186 0 
467 1 9.67261 -19.8923 0 
469 1 10.796 -19.8686 0 
471 1 11.9187 -19.8457 0 
473 1 13.0414 -19.8266 0 
475 1 14.1645 -19.8094 0 
477 1 15.2882 -19.7946 0 
479 1 16.4129 -19.7788 0 
481 1 17.5376 -19.7662 0 
483 1 18.6622 -19.7542 0 
485 1 19.7876 -19.744 0 
487 1 20.9128 -19.7338 0 
489 1 22.0392 -19.7239 0 
491 1 23.1663 -19.7148 0 
493 1 24.2943 -19.7065 0 
495 2 25.4205 -19.6978 0 
497 2 26.5477 -19.6905 0 
499 2 27.6751 -19.6838 0 
502 2 -27.0088 -18.2886 0 
504 2 -25.8793 -18.252 0 
506 2 -24.7497 -18.2147 0 
508 1 -23.6196 -18.1755 0 
510 1 -22.4872 -18.1359 0 
512 1 -21.3557 -18.0946 0 
514 1 -20.2249 -18.0521 0 
515 1 -19.6361 -19.0041 0 
516 1 -19.095 -18.009 0 
517 1 -18.5057 -18.9596 0 
518 1 -17.9653 -17.9637 0 
519 1 -17.3767 -18.9157 0 
520 1 -16.835 -17.9179 0 
521 1 -16.2466 -18.869 0 
523 1 -15.116 -18.8229 0 
525 1 -13.9851 -18.7758 0 
527 1 -12.8555 -18.7309 0 
529 1 -11.7268 -18.6838 0 
531 1 -10.5967 -18.6353 0 
533 1 -9.4677 -18.5847 0 
535 1 -8.34045 -18.5359 0 
537 1 -7.21338 -18.4878 0 
539 1 -6.08668 -18.4377 0 
541 1 -4.96161 -18.3876 0 
543 1 -3.83612 -18.3421 0 
545 1 -2.71308 -18.2959 0 
547 1 -1.59028 -18.2489 0 
549 1 -0.467145 -18.2061 0 
551 1 0.655517 -18.1644 0 
553 1 1.7802 -18.1263 0 
555 1 2.90356 -18.0884 0 
557 1 4.02602 -18.0531 0 
458 1 4.60637 -19.0295 0 
559 1 5.14778 -18.02 0 
460 1 5.7281 -18.9977 0 
561 1 6.27001 -17.9888 0 
462 1 6.84938 -18.9664 0 
563 1 7.39272 -17.9593 0 
464 1 7.97203 -18.9392 0 
565 1 8.51441 -17.9321 0 
466 1 9.09448 -18.9122 0 
567 1 9.63675 -17.9069 0 
468 1 10.217 -18.8876 0 
569 1 10.7598 -17.8831 0 
470 1 11.3398 -18.8642 0 
472 1 12.4632 -18.8437 0 
474 1 13.5861 -18.8252 0 
476 1 14.7091 -18.8101 0 
478 1 15.8324 -18.7962 0 
480 1 16.9578 -18.7826 0 
482 1 18.0829 -18.7707 0 
484 1 19.2088 -18.7601 0 
486 1 20.3354 -18.7499 0 
488 1 21.4623 -18.7409 0 
490 1 22.5892 -18.7312 0 
492 1 23.7163 -18.724 0 
494 1 24.8435 -18.7145 0 
496 2 25.9714 -18.7078 0 
498 2 27.0991 -18.7012 0 
500 2 28.2271 -18.6951 0 
601 2 -27.5979 -17.3354 0 
603 2 -26.4686 -17.2992 0 
605 2 -25.3391 -17.2621 0 
607 2 -24.2094 -17.2244 0 
609 1 -23.0786 -17.1849 0 
611 1 -21.9469 -17.1428 0 
613 1 -20.8159 -17.0998 0 
615 1 -19.6845 -17.057 0 
617 1 -18.5546 -17.0122 0 
619 1 -17.4246 -16.967 0 
522 1 -15.7039 -17.8701 0 
621 1 -16.2939 -16.9196 0 
524 1 -14.5743 -17.8228 0 
623 1 -15.1636 -16.8703 0 
526 1 -13.4434 -17.7761 0 
625 1 -14.0329 -16.8241 0 
528 1 -12.3129 -17.7287 0 
627 1 -12.9016 -16.7757 0 
530 1 -11.183 -17.6811 0 
532 1 -10.0535 -17.6312 0 
534 1 -8.92413 -17.5793 0 
536 1 -7.79546 -17.5292 0 
538 1 -6.66925 -17.4783 0 
540 1 -5.54385 -17.427 0 
542 1 -4.41747 -17.3786 0 
544 1 -3.29411 -17.3296 0 
546 1 -2.17126 -17.2819 0 
548 1 -1.04781 -17.2369 0 
550 1 0.0751616 -17.1927 0 
552 1 1.19849 -17.1542 0 
554 1 2.32113 -17.1147 0 
556 1 3.44463 -17.0778 0 
558 1 4.56733 -17.043 0 
560 1 5.69 -17.0115 0 
562 1 6.81251 -16.9809 0 
564 1 7.93553 -16.9523 0 
566 1 9.05789 -16.9259 0 
568 1 10.1804 -16.9016 0 
571 1 11.8828 -17.8612 0 
570 1 11.3033 -16.8792 0 
573 1 13.0055 -17.8418 0 
572 1 12.4268 -16.8581 0 
575 1 14.1301 -17.8248 0 
574 1 13.5515 -16.8412 0 
577 1 15.254 -17.811 0 
576 1 14.6771 -16.826 0 
579 1 16.3788 -17.799 0 
578 1 15.8029 -16.8148 0 
581 1 17.5045 -17.7875 0 
580 1 16.9292 -16.8036 0 
583 1 18.6299 -17.7764 0 
582 1 18.0551 -16.7924 0 
585 1 19.7562 -17.7665 0 
584 1 19.1807 -16.7818 0 
587 1 20.8835 -17.7569 0 
586 1 20.3066 -16.7727 0 
589 1 22.0106 -17.7482 0 
588 1 21.434 -16.7647 0 
591 1 23.1385 -17.7408 0 
590 1 22.5622 -16.7569 0 
593 1 24.2664 -17.7326 0 
592 1 23.6897 -16.7506 0 
595 2 25.3948 -17.725 0 
594 1 24.8179 -16.7423 0 
596 2 25.9465 -16.7357 0 
597 2 26.5229 -17.7186 0 
598 2 27.0751 -16.7299 0 
599 2 27.6512 -17.7126 0 
600 2 28.2039 -16.7246 0 
602 2 -27.0583 -16.3463 0 
604 2 -25.929 -16.3096 0 
606 2 -24.7995 -16.2721 0 
608 1 -23.6688 -16.2328 0 
610 1 -22.5386 -16.1928 0 
612 1 -21.4076 -16.149 0 
614 1 -20.2767 -16.106 0 
616 1 -19.1456 -16.0612 0 
618 1 -18.0143 -16.0149 0 
620 1 -16.8833 -15.9691 0 
622 1 -15.7518 -15.9203 0 
624 1 -14.6207 -15.8719 0 
626 1 -13.4898 -15.8236 0 
628 1 -12.3583 -15.7748 0 
629 1 -11.77 -16.7273 0 
630 1 -11.2268 -15.7245 0 
631 1 -10.6392 -16.6774 0 
632 1 -10.0976 -15.6689 0 
633 1 -9.51135 -16.6246 0 
634 1 -8.96827 -15.6166 0 
635 1 -8.38264 -16.5728 0 
637 1 -7.25485 -16.5196 0 
639 1 -6.12872 -16.4682 0 
641 1 -5.00199 -16.4183 0 
643 1 -3.87751 -16.3649 0 
645 1 -2.75377 -16.3156 0 
647 1 -1.63036 -16.2686 0 
649 1 -0.507738 -16.2234 0 
651 1 0.617067 -16.1827 0 
653 1 1.74017 -16.1417 0 
655 1 2.86336 -16.1047 0 
657 1 3.9865 -16.067 0 
659 1 5.10975 -16.0346 0 
661 1 6.23267 -16.0027 0 
663 1 7.35576 -15.9734 0 
665 1 8.47837 -15.9451 0 
667 1 9.60136 -15.9194 0 
669 1 10.7245 -15.8971 0 
671 1 11.8482 -15.8761 0 
673 1 12.9731 -15.8582 0 
675 1 14.0981 -15.842 0 
677 1 15.2241 -15.8288 0 
679 1 16.3498 -15.8189 0 
681 1 17.4761 -15.8084 0 
683 1 18.6039 -15.7977 0 
685 1 19.7315 -15.7885 0 
687 1 20.8581 -15.7807 0 
689 1 21.9848 -15.7738 0 
691 1 23.1141 -15.7663 0 
693 1 24.2416 -15.7599 0 
695 2 25.3699 -15.7527 0 
697 2 26.4989 -15.7471 0 
699 2 27.6281 -15.742 0 
701 2 -27.6483 -15.3934 0 
703 2 -26.5193 -15.357 0 
705 2 -25.3901 -15.3199 0 
707 2 -24.2607 -15.282 0 
709 1 -23.1296 -15.2418 0 
711 1 -21.9994 -15.1999 0 
713 1 -20.8684 -15.1556 0 
715 1 -19.7371 -15.1115 0 
717 1 -18.6042 -15.065 0 
719 1 -17.4726 -15.0175 0 
721 1 -16.3423 -14.9702 0 
723 1 -15.2113 -14.9209 0 
725 1 -14.0793 -14.8725 0 
727 1 -12.9471 -14.8222 0 
729 1 -11.8158 -14.7727 0 
731 1 -10.6862 -14.717 0 
733 1 -9.55456 -14.6622 0 
636 1 -7.84013 -15.5632 0 
735 1 -8.42494 -14.6081 0 
638 1 -6.71258 -15.5088 0 
737 1 -7.29774 -14.5523 0 
640 1 -5.58622 -15.4582 0 
739 1 -6.17015 -14.4978 0 
642 1 -4.46217 -15.4023 0 
644 1 -3.33741 -15.3507 0 
646 1 -2.21288 -15.3021 0 
648 1 -1.08962 -15.2541 0 
650 1 0.0346948 -15.2125 0 
652 1 1.15793 -15.1696 0 
654 1 2.28197 -15.1308 0 
656 1 3.40406 -15.0931 0 
658 1 4.52811 -15.0586 0 
660 1 5.65065 -15.0257 0 
662 1 6.77366 -14.9951 0 
664 1 7.89745 -14.9654 0 
666 1 9.02127 -14.9385 0 
668 1 10.1454 -14.9156 0 
670 1 11.2695 -14.8945 0 
672 1 12.3949 -14.8759 0 
674 1 13.5205 -14.8579 0 
676 1 14.6463 -14.8444 0 
678 1 15.7735 -14.8325 0 
680 1 16.9004 -14.8228 0 
682 1 18.0267 -14.8145 0 
684 1 19.1539 -14.804 0 
686 1 20.2808 -14.7962 0 
688 1 21.408 -14.7892 0 
690 1 22.5359 -14.7836 0 
692 1 23.6655 -14.7762 0 
694 1 24.7944 -14.7707 0 
696 2 25.9226 -14.7642 0 
698 2 27.0521 -14.7592 0 
700 2 28.1818 -14.7547 0 
702 2 -27.11 -14.4044 0 
801 2 -27.7009 -13.4516 0 
704 2 -25.9811 -14.3676 0 
803 2 -26.5724 -13.4152 0 
706 2 -24.852 -14.3301 0 
805 2 -25.4437 -13.3781 0 
708 1 -23.721 -14.2914 0 
807 2 -24.3146 -13.3401 0 
710 1 -22.5901 -14.2492 0 
809 1 -23.1838 -13.2982 0 
712 1 -21.459 -14.2057 0 
714 1 -20.327 -14.1613 0 
716 1 -19.1951 -14.1171 0 
718 1 -18.0635 -14.0684 0 
720 1 -16.9335 -14.0194 0 
722 1 -15.8035 -13.9715 0 
724 1 -14.6713 -13.922 0 
726 1 -13.5391 -13.8718 0 
728 1 -12.4061 -13.821 0 
730 1 -11.2757 -13.7666 0 
732 1 -10.1435 -13.712 0 
734 1 -9.01229 -13.6553 0 
736 1 -7.88445 -13.5971 0 
738 1 -6.75664 -13.5409 0 
740 1 -5.6317 -13.4811 0 
741 1 -5.04629 -14.4412 0 
742 1 -4.50642 -13.427 0 
743 1 -3.9208 -14.3874 0 
744 1 -3.38111 -13.3724 0 
745 1 -2.79641 -14.3361 0 
746 1 -2.25699 -13.3198 0 
747 1 -1.67333 -14.2866 0 
749 1 -0.547765 -14.2429 0 
751 1 0.575178 -14.1987 0 
753 1 1.69907 -14.158 0 
755 1 2.82184 -14.1174 0 
757 1 3.9448 -14.0829 0 
759 1 5.06728 -14.0481 0 
761 1 6.19069 -14.0171 0 
763 1 7.31375 -13.9877 0 
765 1 8.43815 -13.9593 0 
767 1 9.56373 -13.9343 0 
769 1 10.6891 -13.9127 0 
771 1 11.8144 -13.8933 0 
773 1 12.9402 -13.8749 0 
775 1 14.0674 -13.8593 0 
777 1 15.1947 -13.8475 0 
779 1 16.3222 -13.8375 0 
781 1 17.4497 -13.8286 0 
783 1 18.5763 -13.8202 0 
785 1 19.7037 -13.8113 0 
787 1 20.8321 -13.8047 0 
789 1 21.9604 -13.7986 0 
791 1 23.088 -13.7933 0 
793 1 24.217 -13.7878 0 
795 2 25.3462 -13.7811 0 
797 2 26.4761 -13.7764 0 
799 2 27.6062 -13.772 0 
802 2 -27.164 -12.4626 0 
804 2 -26.0357 -12.4259 0 
806 2 -24.9071 -12.3884 0 
808 1 -23.7774 -12.3477 0 
810 1 -22.6471 -12.305 0 
811 1 -22.0524 -13.2556 0 
812 1 -21.5159 -12.2635 0 
813 1 -20.9196 -13.2118 0 
814 1 -20.3836 -12.2193 0 
815 1 -19.7877 -13.1676 0 
816 1 -19.2519 -12.1742 0 
817 1 -18.657 -13.1221 0 
818 1 -18.1209 -12.1256 0 
819 1 -17.5257 -13.0717 0 
821 1 -16.3943 -13.0225 0 
823 1 -15.2633 -12.9732 0 
825 1 -14.1312 -12.9224 0 
827 1 -12.9988 -12.8714 0 
829 1 -11.8668 -12.8162 0 
831 1 -10.7342 -12.7619 0 
833 1 -9.60255 -12.7042 0 
835 1 -8.47303 -12.6441 0 
837 1 -7.34395 -12.5858 0 
839 1 -6.21752 -12.5246 0 
841 1 -5.09065 -12.4666 0 
843 1 -3.96599 -12.4109 0 
845 1 -2.84144 -12.3546 0 
748 1 -1.13184 -13.2749 0 
847 1 -1.71622 -12.3054 0 
849 1 -0.592748 -12.2568 0 
750 1 -0.00835462 -13.227 0 
851 1 0.531425 -12.2116 0 
752 1 1.11499 -13.1849 0 
853 1 1.65369 -12.1685 0 
754 1 2.23775 -13.1443 0 
756 1 3.36208 -13.1065 0 
758 1 4.48513 -13.0705 0 
760 1 5.60888 -13.0392 0 
762 1 6.73222 -13.008 0 
764 1 7.85635 -12.9798 0 
766 1 8.98173 -12.9538 0 
768 1 10.1091 -12.9311 0 
770 1 11.2354 -12.9102 0 
772 1 12.361 -12.8919 0 
774 1 13.4866 -12.8751 0 
776 1 14.6136 -12.8626 0 
778 1 15.7411 -12.8518 0 
780 1 16.8693 -12.8432 0 
782 1 17.9977 -12.835 0 
784 1 19.1267 -12.8267 0 
786 1 20.2543 -12.8198 0 
788 1 21.3822 -12.8134 0 
790 1 22.5107 -12.8094 0 
792 1 23.6402 -12.8049 0 
794 1 24.7699 -12.7992 0 
796 2 25.9 -12.7934 0 
798 2 27.0306 -12.7893 0 
800 2 28.1612 -12.7854 0 
901 2 -27.7557 -11.5099 0 
903 2 -26.6279 -11.4735 0 
905 2 -25.4997 -11.4364 0 
907 2 -24.3713 -11.3985 0 
909 1 -23.2411 -11.3559 0 
911 1 -22.1103 -11.3141 0 
913 1 -20.9799 -11.2715 0 
915 1 -19.8489 -11.2259 0 
917 1 -18.7177 -11.1784 0 
820 1 -16.9892 -12.0754 0 
919 1 -17.5851 -11.1282 0 
822 1 -15.8572 -12.0254 0 
921 1 -16.4523 -11.0781 0 
824 1 -14.7241 -11.9747 0 
923 1 -15.3192 -11.0276 0 
826 1 -13.592 -11.9226 0 
828 1 -12.4607 -11.8683 0 
830 1 -11.3268 -11.8125 0 
832 1 -10.1951 -11.7544 0 
834 1 -9.06462 -11.6933 0 
836 1 -7.93473 -11.6331 0 
838 1 -6.80694 -11.5709 0 
840 1 -5.67888 -11.5107 0 
842 1 -4.55264 -11.4492 0 
844 1 -3.42812 -11.3907 0 
846 1 -2.30272 -11.3378 0 
848 1 -1.17826 -11.2861 0 
850 1 -0.0538979 -11.2399 0 
852 1 1.06856 -11.1943 0 
855 1 2.77641 -12.1319 0 
854 1 2.19166 -11.1545 0 
857 1 3.90079 -12.0942 0 
856 1 3.31475 -11.1178 0 
859 1 5.02636 -12.06 0 
858 1 4.44023 -11.0829 0 
861 1 6.15017 -12.0286 0 
860 1 5.56628 -11.0489 0 
863 1 7.27453 -12.0005 0 
862 1 6.69167 -11.0199 0 
865 1 8.39925 -11.9731 0 
864 1 7.81648 -10.9926 0 
867 1 9.52613 -11.9495 0 
869 1 10.6528 -11.9281 0 
871 1 11.7797 -11.9095 0 
873 1 12.9068 -11.8912 0 
875 1 14.0351 -11.8781 0 
877 1 15.164 -11.8669 0 
879 1 16.2929 -11.8577 0 
881 1 17.4215 -11.8493 0 
883 1 18.5498 -11.8415 0 
885 1 19.679 -11.8343 0 
887 1 20.8079 -11.8296 0 
889 1 21.9371 -11.8246 0 
891 1 23.0651 -11.8217 0 
893 1 24.1945 -11.8158 0 
895 2 25.3239 -11.8103 0 
897 2 26.4549 -11.8064 0 
899 2 27.586 -11.8028 0 
902 2 -27.2202 -10.5209 0 
904 2 -26.0925 -10.4842 0 
906 2 -24.9646 -10.4468 0 
908 1 -23.8356 -10.4073 0 
910 1 -22.7057 -10.3651 0 
912 1 -21.5757 -10.3227 0 
914 1 -20.4452 -10.2779 0 
916 1 -19.3136 -10.2307 0 
918 1 -18.1821 -10.1814 0 
920 1 -17.0497 -10.1316 0 
922 1 -15.9168 -10.0815 0 
924 1 -14.7831 -10.03 0 
925 1 -14.1863 -10.9755 0 
926 1 -13.65 -9.97623 0 
927 1 -13.0541 -10.9217 0 
928 1 -12.5168 -9.92095 0 
929 1 -11.9208 -10.8663 0 
930 1 -11.3838 -9.86115 0 
931 1 -10.7886 -10.8064 0 
933 1 -9.65757 -10.7451 0 
935 1 -8.52562 -10.6831 0 
937 1 -7.39593 -10.6177 0 
939 1 -6.26691 -10.5559 0 
941 1 -5.14113 -10.4917 0 
943 1 -4.01643 -10.4293 0 
945 1 -2.89032 -10.3726 0 
947 1 -1.76658 -10.3177 0 
949 1 -0.64134 -10.2689 0 
951 1 0.481423 -10.2208 0 
953 1 1.60647 -10.1789 0 
955 1 2.73087 -10.1405 0 
957 1 3.855 -10.105 0 
959 1 4.98009 -10.0717 0 
961 1 6.10693 -10.0407 0 
963 1 7.23303 -10.0122 0 
965 1 8.3611 -9.98747 0 
866 1 8.94274 -10.9681 0 
967 1 9.48836 -9.96313 0 
868 1 10.0693 -10.9455 0 
969 1 10.6156 -9.94295 0 
870 1 11.1964 -10.9266 0 
971 1 11.7437 -9.92636 0 
872 1 12.3244 -10.91 0 
973 1 12.8734 -9.912 0 
874 1 13.4547 -10.8942 0 
975 1 14.0032 -9.89842 0 
876 1 14.5848 -10.8824 0 
977 1 15.1331 -9.88855 0 
878 1 15.7148 -10.8718 0 
979 1 16.2645 -9.87826 0 
880 1 16.8438 -10.864 0 
981 1 17.3962 -9.87244 0 
882 1 17.9735 -10.8566 0 
983 1 18.526 -9.86632 0 
884 1 19.1038 -10.8502 0 
985 1 19.6547 -9.85899 0 
886 1 20.2336 -10.8441 0 
987 1 20.7842 -9.85421 0 
888 1 21.3627 -10.841 0 
890 1 22.4911 -10.8362 0 
989 1 21.9141 -9.85162 0 
892 1 23.6193 -10.833 0 
991 1 23.0446 -9.84909 0 
894 1 24.7496 -10.828 0 
993 1 24.1742 -9.84573 0 
896 2 25.8793 -10.8234 0 
995 2 25.3037 -9.84035 0 
898 2 27.0108 -10.8201 0 
997 2 26.4357 -9.83726 0 
900 2 28.1423 -10.817 0 
999 2 27.5677 -9.8344 0 
1001 2 -27.8125 -9.56805 0 
1003 2 -26.6854 -9.5318 0 
1005 2 -25.5581 -9.49477 0 
1007 2 -24.4305 -9.45693 0 
1009 1 -23.3021 -9.41556 0 
1011 1 -22.1723 -9.37415 0 
1013 1 -21.0412 -9.33069 0 
1015 1 -19.9105 -9.28426 0 
1017 1 -18.7803 -9.23556 0 
1019 1 -17.6477 -9.1864 0 
1021 1 -16.5148 -9.1366 0 
1023 1 -15.3824 -9.08559 0 
1025 1 -14.2495 -9.03247 0 
1027 1 -13.1153 -8.97672 0 
1029 1 -11.9809 -8.91733 0 
932 1 -10.2513 -9.79913 0 
1031 1 -10.8478 -8.85512 0 
934 1 -9.11838 -9.73631 0 
1033 1 -9.71429 -8.7923 0 
936 1 -7.98878 -9.66787 0 
1035 1 -8.58347 -8.72151 0 
938 1 -6.85906 -9.60284 0 
940 1 -5.7315 -9.53565 0 
942 1 -4.60542 -9.46918 0 
944 1 -3.4793 -9.40974 0 
946 1 -2.35586 -9.34943 0 
948 1 -1.23074 -9.29841 0 
950 1 -0.107626 -9.24717 0 
952 1 1.01759 -9.2049 0 
954 1 2.14363 -9.16364 0 
956 1 3.26959 -9.12634 0 
958 1 4.39467 -9.09238 0 
960 1 5.52072 -9.06233 0 
962 1 6.64659 -9.03216 0 
964 1 7.77455 -9.00784 0 
966 1 8.90252 -8.98183 0 
968 1 10.032 -8.96057 0 
970 1 11.1612 -8.94294 0 
972 1 12.2907 -8.92937 0 
974 1 13.4217 -8.91589 0 
976 1 14.5533 -8.90453 0 
978 1 15.684 -8.89512 0 
980 1 16.8159 -8.88763 0 
982 1 17.947 -8.88084 0 
984 1 19.0781 -8.87542 0 
986 1 20.2091 -8.86892 0 
988 1 21.3399 -8.86619 0 
990 1 22.4712 -8.86442 0 
992 1 23.6007 -8.86177 0 
994 1 24.7305 -8.85821 0 
996 2 25.8608 -8.85435 0 
998 2 26.9933 -8.85174 0 
1000 2 28.1257 -8.84931 0 
1002 2 -27.2783 -8.57905 0 
1101 2 -27.8711 -7.62598 0 
1004 2 -26.1516 -8.54247 0 
1103 2 -26.7449 -7.58983 0 
1006 2 -25.0246 -8.50509 0 
1105 2 -25.6186 -7.5529 0 
1008 1 -23.8969 -8.46534 0 
1107 2 -24.492 -7.51516 0 
1010 1 -22.767 -8.42445 0 
1012 1 -21.638 -8.38345 0 
1014 1 -20.5086 -8.3386 0 
1016 1 -19.3785 -8.29025 0 
1018 1 -18.2472 -8.24231 0 
1020 1 -17.1143 -8.19302 0 
1022 1 -15.9816 -8.14184 0 
1024 1 -14.8488 -8.08867 0 
1026 1 -13.7157 -8.03407 0 
1028 1 -12.5818 -7.97577 0 
1030 1 -11.4469 -7.91315 0 
1032 1 -10.312 -7.84838 0 
1034 1 -9.18092 -7.77834 0 
1036 1 -8.04838 -7.7064 0 
1037 1 -7.45278 -8.65211 0 
1038 1 -6.91777 -7.63278 0 
1039 1 -6.32406 -8.58249 0 
1041 1 -5.1975 -8.51117 0 
1043 1 -4.07103 -8.44691 0 
1045 1 -2.94753 -8.38272 0 
1047 1 -1.82203 -8.32809 0 
1049 1 -0.698637 -8.27341 0 
1051 1 0.427604 -8.22982 0 
1053 1 1.55353 -8.18829 0 
1055 1 2.68076 -8.14858 0 
1057 1 3.8076 -8.1122 0 
1059 1 4.93531 -8.08188 0 
1061 1 6.0624 -8.0512 0 
1063 1 7.19079 -8.02584 0 
1065 1 8.31815 -8.00078 0 
1067 1 9.44779 -7.97913 0 
1069 1 10.5782 -7.9605 0 
1071 1 11.7097 -7.94637 0 
1073 1 12.8408 -7.93421 0 
1075 1 13.9727 -7.92165 0 
1077 1 15.1051 -7.91106 0 
1079 1 16.2382 -7.90377 0 
1081 1 17.3701 -7.89625 0 
1083 1 18.5028 -7.89042 0 
1085 1 19.6343 -7.88529 0 
1087 1 20.7649 -7.88026 0 
1089 1 21.8951 -7.87917 0 
1091 1 23.0265 -7.87625 0 
1093 1 24.1565 -7.87474 0 
1095 2 25.2861 -7.87134 0 
1097 2 26.419 -7.86899 0 
1099 2 27.5519 -7.8668 0 
1102 2 -27.3381 -6.63684 0 
1104 2 -26.2124 -6.60035 0 
1106 2 -25.0865 -6.56307 0 
1108 1 -23.9594 -6.526 0 
1109 1 -23.3632 -7.47559 0 
1110 1 -22.8321 -6.4851 0 
1111 1 -22.2347 -7.4342 0 
1112 1 -21.7046 -6.44353 0 
1113 1 -21.1065 -7.39175 0 
1114 1 -20.5764 -6.39944 0 
1115 1 -19.9775 -7.34541 0 
1116 1 -19.4471 -6.35232 0 
1117 1 -18.8471 -7.29743 0 
1119 1 -17.7151 -7.24951 0 
1121 1 -16.5833 -7.1984 0 
1123 1 -15.4512 -7.14563 0 
1125 1 -14.3179 -7.09176 0 
1127 1 -13.1848 -7.03429 0 
1129 1 -12.0508 -6.9733 0 
1131 1 -10.9161 -6.90791 0 
1133 1 -9.78284 -6.83557 0 
1135 1 -8.64921 -6.76439 0 
1137 1 -7.51692 -6.68823 0 
1139 1 -6.38759 -6.60791 0 
1040 1 -5.79124 -7.55775 0 
1141 1 -5.25963 -6.53318 0 
1042 1 -4.6636 -7.48826 0 
1143 1 -4.13564 -6.45778 0 
1044 1 -3.53923 -7.41792 0 
1046 1 -2.41448 -7.35909 0 
1048 1 -1.29251 -7.3012 0 
1050 1 -0.165491 -7.25578 0 
1052 1 0.96082 -7.21083 0 
1054 1 2.08758 -7.17263 0 
1056 1 3.21537 -7.13436 0 
1058 1 4.34459 -7.10157 0 
1060 1 5.47284 -7.07083 0 
1062 1 6.60317 -7.04466 0 
1064 1 7.73342 -7.01828 0 
1066 1 8.86416 -6.99706 0 
1068 1 9.99547 -6.97784 0 
1070 1 11.1286 -6.96319 0 
1072 1 12.2614 -6.95079 0 
1074 1 13.3937 -6.93923 0 
1076 1 14.5272 -6.92785 0 
1078 1 15.6614 -6.91976 0 
1080 1 16.7938 -6.9125 0 
1082 1 17.9247 -6.90575 0 
1084 1 19.0578 -6.90028 0 
1086 1 20.1903 -6.89575 0 
1088 1 21.3216 -6.89245 0 
1090 1 22.4528 -6.89191 0 
1092 1 23.5832 -6.88977 0 
1094 1 24.7143 -6.88914 0 
1096 2 25.8451 -6.88616 0 
1098 2 26.9784 -6.88422 0 
1100 2 28.1116 -6.88241 0 
1201 2 -27.9311 -5.68349 0 
1203 2 -26.806 -5.64742 0 