ITEM: TIMESTEP
1300
ITEM: NUMBER OF ATOMS
2850
ITEM: BOX BOUNDS ff ff pp
-42.092 42.092
-42.092 42.092
-0.280613 0.280613
ITEM: ATOMS id type xu yu zu 
1 2 -27.3398 -28.9988 0 
3 2 -26.2107 -28.9642 0 
5 2 -25.0816 -28.9291 0 
7 2 -23.9525 -28.8936 0 
9 2 -22.8235 -28.8577 0 
11 2 -21.6944 -28.8213 0 
13 2 -20.5655 -28.7844 0 
15 2 -19.4366 -28.7472 0 
17 2 -18.3079 -28.7095 0 
19 2 -17.1793 -28.6715 0 
21 2 -16.0508 -28.6331 0 
23 2 -14.9226 -28.5944 0 
25 2 -13.7947 -28.5554 0 
27 2 -12.667 -28.5163 0 
29 2 -11.5396 -28.477 0 
31 2 -10.4126 -28.4376 0 
33 2 -9.28592 -28.3982 0 
35 2 -8.15967 -28.3589 0 
37 2 -7.03386 -28.3198 0 
39 2 -5.90848 -28.281 0 
2 2 -26.7941 -28.0086 0 
4 2 -25.6649 -27.9736 0 
6 2 -24.5357 -27.9381 0 
8 2 -23.4065 -27.902 0 
10 2 -22.2773 -27.8656 0 
12 2 -21.1481 -27.8286 0 
14 2 -20.019 -27.7912 0 
16 2 -18.89 -27.7533 0 
18 2 -17.7611 -27.715 0 
20 2 -16.6324 -27.6763 0 
22 2 -15.5039 -27.6373 0 
24 2 -14.3755 -27.5979 0 
26 2 -13.2475 -27.5582 0 
28 2 -12.1197 -27.5183 0 
30 2 -10.9923 -27.4783 0 
32 2 -9.86522 -27.4382 0 
34 2 -8.73856 -27.3981 0 
36 2 -7.61233 -27.3581 0 
38 2 -6.48656 -27.3184 0 
40 2 -5.36126 -27.2789 0 
41 2 -4.78357 -28.2426 0 
42 2 -4.23645 -27.24 0 
43 2 -3.65912 -28.2046 0 
44 2 -3.11213 -27.2015 0 
45 2 -2.53513 -28.1673 0 
46 2 -1.98828 -27.1638 0 
47 2 -1.41159 -28.1307 0 
48 2 -0.8649 -27.1269 0 
49 2 -0.288464 -28.095 0 
51 2 0.834263 -28.0602 0 
53 2 1.95663 -28.0264 0 
55 2 3.07869 -27.9937 0 
57 2 4.20048 -27.9622 0 
59 2 5.32207 -27.9319 0 
61 2 6.4435 -27.9029 0 
63 2 7.56483 -27.8752 0 
65 2 8.68613 -27.8488 0 
67 2 9.80743 -27.8237 0 
69 2 10.9288 -27.8 0 
71 2 12.0503 -27.7775 0 
73 2 13.1719 -27.7563 0 
75 2 14.2937 -27.7363 0 
77 2 15.4157 -27.7174 0 
79 2 16.538 -27.6997 0 
81 2 17.6605 -27.683 0 
83 2 18.7832 -27.6673 0 
85 2 19.9063 -27.6526 0 
87 2 21.0296 -27.6388 0 
89 2 22.1532 -27.6258 0 
91 2 23.2771 -27.6136 0 
93 2 24.4012 -27.6022 0 
95 2 25.5256 -27.5914 0 
97 2 26.6503 -27.5812 0 
99 2 27.7752 -27.5717 0 
101 2 -27.378 -27.0533 0 
103 2 -26.2487 -27.0183 0 
102 2 -26.833 -26.0633 0 
105 2 -25.1194 -26.9828 0 
104 2 -25.7037 -26.0278 0 
107 2 -23.9901 -26.9468 0 
106 2 -24.5742 -25.9918 0 
109 2 -22.8607 -26.9102 0 
108 1 -23.4427 -25.9556 0 
111 2 -21.7314 -26.8732 0 
113 2 -20.6021 -26.8357 0 
115 2 -19.4729 -26.7977 0 
117 2 -18.3437 -26.7591 0 
119 2 -17.2147 -26.7202 0 
121 2 -16.0858 -26.6808 0 
123 2 -14.9572 -26.641 0 
125 2 -13.8287 -26.6009 0 
127 2 -12.7006 -26.5605 0 
129 2 -11.5727 -26.5198 0 
131 2 -10.4452 -26.479 0 
133 2 -9.31813 -26.4382 0 
135 2 -8.19146 -26.3973 0 
137 2 -7.06526 -26.3566 0 
139 2 -5.93954 -26.3162 0 
141 2 -4.81433 -26.2762 0 
143 2 -3.68963 -26.2366 0 
145 2 -2.56545 -26.1977 0 
147 2 -1.44177 -26.1596 0 
50 2 0.258046 -27.0909 0 
149 2 -0.318563 -26.1224 0 
52 2 1.38059 -27.056 0 
151 2 0.804196 -26.0862 0 
54 2 2.50279 -27.0222 0 
153 2 1.92656 -26.0512 0 
56 2 3.62468 -26.9896 0 
155 2 3.04857 -26.0174 0 
58 2 4.74633 -26.9582 0 
157 2 4.1703 -25.9849 0 
60 2 5.86779 -26.9282 0 
159 2 5.2918 -25.9538 0 
62 2 6.98913 -26.8996 0 
64 2 8.11041 -26.8723 0 
66 2 9.23169 -26.8465 0 
68 2 10.353 -26.822 0 
70 2 11.4745 -26.7989 0 
72 2 12.596 -26.7771 0 
74 2 13.7178 -26.7566 0 
76 2 14.8398 -26.7373 0 
78 2 15.962 -26.7192 0 
80 2 17.0845 -26.7023 0 
82 2 18.2073 -26.6863 0 
84 2 19.3304 -26.6714 0 
86 2 20.4538 -26.6575 0 
88 2 21.5774 -26.6444 0 
90 2 22.7014 -26.6321 0 
92 2 23.8256 -26.6206 0 
94 2 24.9501 -26.6098 0 
96 2 26.0749 -26.5996 0 
98 2 27.2 -26.5901 0 
100 2 28.3253 -26.5811 0 
201 2 -27.4179 -25.1085 0 
203 2 -26.2885 -25.0731 0 
205 2 -25.159 -25.0372 0 
207 2 -24.0295 -25.0007 0 
209 1 -22.8976 -24.9647 0 
110 1 -22.3115 -25.9179 0 
211 1 -21.7677 -24.9241 0 
112 1 -21.1827 -25.8795 0 
213 1 -20.6398 -24.883 0 
114 1 -20.055 -25.8407 0 
215 1 -19.5117 -24.8451 0 
116 1 -18.9272 -25.8022 0 
217 1 -18.3845 -24.8058 0 
118 1 -17.8003 -25.763 0 
120 1 -16.6723 -25.7236 0 
122 1 -15.5437 -25.6854 0 
124 1 -14.4141 -25.6462 0 
126 1 -13.2854 -25.6046 0 
128 1 -12.1568 -25.5628 0 
130 1 -11.0286 -25.5199 0 
132 1 -9.90144 -25.4787 0 
134 1 -8.77521 -25.4363 0 
136 1 -7.65023 -25.3928 0 
138 1 -6.52459 -25.3516 0 
140 1 -5.3975 -25.3122 0 
142 1 -4.27265 -25.2717 0 
144 1 -3.14895 -25.2317 0 
146 1 -2.02409 -25.1929 0 
148 1 -0.900755 -25.1543 0 
150 1 0.22179 -25.119 0 
152 1 1.34476 -25.0837 0 
154 1 2.46843 -25.0481 0 
156 1 3.59044 -25.0149 0 
158 1 4.71148 -24.9825 0 
160 1 5.833 -24.9498 0 
161 2 6.41316 -25.9242 0 
162 1 6.95575 -24.9222 0 
163 2 7.53443 -25.896 0 
164 1 8.07783 -24.8959 0 
165 2 8.65568 -25.8693 0 
167 2 9.77697 -25.844 0 
166 1 9.19944 -24.8687 0 
169 2 10.8984 -25.8202 0 
168 1 10.3216 -24.8447 0 
171 2 12.0199 -25.7978 0 
170 1 11.445 -24.8185 0 
173 2 13.1416 -25.7768 0 
175 2 14.2636 -25.7571 0 
177 2 15.3858 -25.7386 0 
179 2 16.5083 -25.7213 0 
181 2 17.6311 -25.7052 0 
183 2 18.7543 -25.6901 0 
185 2 19.8777 -25.6759 0 
187 2 21.0014 -25.6627 0 
189 2 22.1254 -25.6504 0 
191 2 23.2498 -25.6388 0 
193 2 24.3744 -25.628 0 
195 2 25.4993 -25.6179 0 
197 2 26.6245 -25.6084 0 
199 2 27.75 -25.5994 0 
202 2 -26.8739 -24.1187 0 
204 2 -25.7444 -24.0828 0 
206 2 -24.6148 -24.0464 0 
208 1 -23.4849 -24.0112 0 
210 1 -22.3561 -23.9713 0 
212 1 -21.2274 -23.9284 0 
214 1 -20.0972 -23.8879 0 
216 1 -18.9684 -23.8487 0 
219 1 -17.2567 -24.7673 0 
218 1 -17.8396 -23.8112 0 
221 1 -16.1268 -24.7289 0 
220 1 -16.7093 -23.7729 0 
222 1 -15.5792 -23.7338 0 
223 1 -14.997 -24.6904 0 
224 1 -14.4515 -23.6914 0 
225 1 -13.8689 -24.6482 0 
227 1 -12.7402 -24.6055 0 
229 1 -11.6117 -24.5617 0 
231 1 -10.4834 -24.5187 0 
233 1 -9.35753 -24.4758 0 
235 1 -8.23235 -24.4318 0 
237 1 -7.10524 -24.3895 0 
239 1 -5.97946 -24.35 0 
241 1 -4.85543 -24.3079 0 
243 1 -3.73029 -24.2652 0 
245 1 -2.60484 -24.226 0 
247 1 -1.4811 -24.1866 0 
249 1 -0.356098 -24.1497 0 
251 1 0.768187 -24.1136 0 
253 1 1.89038 -24.0798 0 
255 1 3.01263 -24.045 0 
257 1 4.13429 -24.0111 0 
259 1 5.25508 -23.9789 0 
261 1 6.37664 -23.9493 0 
263 1 7.49879 -23.9204 0 
265 1 8.62039 -23.8938 0 
267 1 9.74324 -23.8675 0 
269 1 10.8653 -23.8439 0 
271 1 11.9887 -23.8177 0 
172 1 12.5669 -24.7947 0 
273 1 13.1121 -23.795 0 
174 1 13.6888 -24.777 0 
275 1 14.2358 -23.7788 0 
176 1 14.8125 -24.7598 0 
277 1 15.359 -23.7604 0 
178 1 15.9353 -24.7402 0 
279 1 16.482 -23.7414 0 
180 1 17.0575 -24.722 0 
281 1 17.6046 -23.7233 0 
182 1 18.1798 -24.7044 0 
283 1 18.7282 -23.7069 0 
184 1 19.3024 -24.6929 0 
285 1 19.8516 -23.6973 0 
186 1 20.4267 -24.6811 0 
287 1 20.9763 -23.688 0 
188 1 21.5511 -24.6697 0 
289 1 22.1 -23.6742 0 
190 1 22.6728 -24.6562 0 
291 1 23.2234 -23.6638 0 
192 1 23.796 -24.6465 0 
293 1 24.3468 -23.6534 0 
194 1 24.9213 -24.6363 0 
295 2 25.4729 -23.6443 0 
196 2 26.0488 -24.6264 0 
198 2 27.1745 -24.6176 0 
200 2 28.3003 -24.6093 0 
301 2 -27.4598 -23.1644 0 
303 2 -26.3303 -23.1287 0 
305 2 -25.2007 -23.0924 0 
307 2 -24.071 -23.0555 0 
309 1 -22.9431 -23.0189 0 
311 1 -21.8139 -22.9771 0 
313 1 -20.6831 -22.9347 0 
315 1 -19.5522 -22.893 0 
317 1 -18.4222 -22.8548 0 
319 1 -17.2929 -22.8172 0 
321 1 -16.1635 -22.7773 0 
323 1 -15.035 -22.7354 0 
226 1 -13.3228 -23.6494 0 
325 1 -13.9058 -22.6947 0 
327 1 -12.7773 -22.6514 0 
228 1 -12.1929 -23.6055 0 
329 1 -11.6496 -22.6049 0 
230 1 -11.0644 -23.5601 0 
331 1 -10.5222 -22.558 0 
232 1 -9.93806 -23.5151 0 
333 1 -9.39487 -22.5109 0 
234 1 -8.81238 -23.4709 0 
236 1 -7.6852 -23.4295 0 
238 1 -6.55778 -23.3864 0 
240 1 -5.43289 -23.3431 0 
242 1 -4.30828 -23.3013 0 
244 1 -3.18283 -23.2605 0 
246 1 -2.059 -23.2202 0 
248 1 -0.934556 -23.183 0 
250 1 0.190993 -23.1456 0 
252 1 1.31576 -23.11 0 
254 1 2.43823 -23.0765 0 
256 1 3.55979 -23.0405 0 
258 1 4.68099 -23.0063 0 
260 1 5.80029 -22.9745 0 
262 1 6.9205 -22.946 0 
264 1 8.04178 -22.9177 0 
266 1 9.16352 -22.8913 0 
268 1 10.2871 -22.8652 0 
270 1 11.4102 -22.8425 0 
272 1 12.5345 -22.818 0 
274 1 13.6589 -22.7971 0 
276 1 14.7805 -22.779 0 
278 1 15.904 -22.7609 0 
280 1 17.0276 -22.743 0 
282 1 18.152 -22.7262 0 
284 1 19.2762 -22.7125 0 
286 1 20.3991 -22.7041 0 
288 1 21.5225 -22.6948 0 
290 1 22.6481 -22.6828 0 
292 1 23.7724 -22.6701 0 
294 1 24.8964 -22.6606 0 
297 2 26.5987 -23.6355 0 
296 2 26.0228 -22.6533 0 
299 2 27.7248 -23.6273 0 
298 2 27.149 -22.6452 0 
300 2 28.2755 -22.6376 0 
302 2 -26.9167 -22.1747 0 
304 2 -25.7871 -22.1385 0 
306 2 -24.6574 -22.1018 0 
308 1 -23.5272 -22.0637 0 
310 1 -22.3991 -22.0254 0 
312 1 -21.2691 -21.9839 0 
314 1 -20.1383 -21.9416 0 
316 1 -19.0076 -21.9007 0 
318 1 -17.8783 -21.8616 0 
320 1 -16.7497 -21.8217 0 
322 1 -15.6203 -21.7807 0 
324 1 -14.49 -21.7402 0 
326 1 -13.3622 -21.6967 0 
328 1 -12.2342 -21.65 0 
330 1 -11.1063 -21.6018 0 
332 1 -9.9783 -21.5538 0 
334 1 -8.849 -21.5073 0 
335 1 -8.26715 -22.4672 0 
336 1 -7.72121 -21.4626 0 
337 1 -7.13999 -22.4246 0 
338 1 -6.59544 -21.4186 0 
339 1 -6.01327 -22.3803 0 
340 1 -5.47004 -21.375 0 
341 1 -4.88702 -22.3373 0 
343 1 -3.76305 -22.2966 0 
345 1 -2.6393 -22.2569 0 
347 1 -1.5137 -22.2177 0 
349 1 -0.387668 -22.179 0 
351 1 0.737673 -22.142 0 
353 1 1.86099 -22.1077 0 
355 1 2.98255 -22.0705 0 
357 1 4.1041 -22.0348 0 
359 1 5.22473 -21.9991 0 
361 1 6.34552 -21.9694 0 
363 1 7.4658 -21.9412 0 
365 1 8.58597 -21.9138 0 
367 1 9.70765 -21.887 0 
369 1 10.8308 -21.8624 0 
371 1 11.9543 -21.8411 0 
373 1 13.0797 -21.8202 0 
375 1 14.2032 -21.7975 0 
377 1 15.3268 -21.7807 0 
379 1 16.4523 -21.7612 0 
381 1 17.5777 -21.7461 0 
383 1 18.7041 -21.7328 0 
385 1 19.8287 -21.7215 0 
387 1 20.9499 -21.7118 0 
389 1 22.0711 -21.7029 0 
391 1 23.1941 -21.69 0 
393 1 24.3188 -21.6774 0 
395 2 25.4466 -21.6709 0 
397 2 26.573 -21.6629 0 
399 2 27.6998 -21.6554 0 
401 2 -27.5037 -21.2208 0 
403 2 -26.3741 -21.1849 0 
402 2 -26.9617 -20.2313 0 
405 2 -25.2445 -21.1483 0 
404 2 -25.8321 -20.1949 0 
407 2 -24.1147 -21.111 0 
409 1 -22.9839 -21.0711 0 
411 1 -21.8536 -21.0321 0 
413 1 -20.7233 -20.9903 0 
415 1 -19.594 -20.9494 0 
417 1 -18.4649 -20.9086 0 
419 1 -17.3357 -20.8676 0 
421 1 -16.2055 -20.8267 0 
423 1 -15.0745 -20.7865 0 
425 1 -13.9448 -20.7415 0 
427 1 -12.8174 -20.6942 0 
429 1 -11.69 -20.6461 0 
431 1 -10.5608 -20.5989 0 
433 1 -9.43116 -20.5511 0 
435 1 -8.30261 -20.5039 0 
437 1 -7.17559 -20.458 0 
439 1 -6.0497 -20.4129 0 
342 1 -4.34522 -21.3322 0 
441 1 -4.92472 -20.369 0 
344 1 -3.22086 -21.2927 0 
443 1 -3.80146 -20.3276 0 
346 1 -2.09597 -21.2533 0 
445 1 -2.67832 -20.2881 0 
348 1 -0.970712 -21.2139 0 
447 1 -1.55364 -20.248 0 
350 1 0.15421 -21.176 0 
352 1 1.278 -21.1385 0 
354 1 2.4002 -21.1009 0 
356 1 3.52233 -21.0641 0 
358 1 4.6438 -21.0276 0 
360 1 5.76611 -20.9932 0 
362 1 6.88704 -20.9635 0 
364 1 8.00828 -20.9349 0 
366 1 9.13009 -20.9085 0 
368 1 10.2524 -20.8835 0 
370 1 11.3746 -20.8614 0 
372 1 12.4977 -20.8424 0 
374 1 13.6224 -20.8198 0 
376 1 14.7486 -20.7996 0 
378 1 15.8735 -20.7828 0 
380 1 17.0001 -20.7646 0 
382 1 18.1262 -20.752 0 
384 1 19.2517 -20.7405 0 
386 1 20.3747 -20.7288 0 
388 1 21.4969 -20.7196 0 
390 1 22.619 -20.7097 0 
392 1 23.7442 -20.6967 0 
394 1 24.8718 -20.6903 0 
396 2 25.9969 -20.6804 0 
398 2 27.1238 -20.673 0 
400 2 28.251 -20.6661 0 
501 2 -27.5497 -19.2779 0 
503 2 -26.4202 -19.2417 0 
505 2 -25.2906 -19.2049 0 
406 2 -24.7023 -20.1579 0 
507 2 -24.1608 -19.1673 0 
408 1 -23.5738 -20.1199 0 
509 1 -23.0314 -19.1286 0 
410 1 -22.442 -20.0796 0 
511 1 -21.9004 -19.0865 0 
412 1 -21.3105 -20.0383 0 
513 1 -20.7701 -19.0453 0 
414 1 -20.1801 -19.9969 0 
416 1 -19.0518 -19.9561 0 
418 1 -17.9231 -19.9147 0 
420 1 -16.7926 -19.8734 0 
422 1 -15.6611 -19.8328 0 
424 1 -14.5305 -19.7886 0 
426 1 -13.4015 -19.7396 0 
428 1 -12.2735 -19.6916 0 
430 1 -11.145 -19.6453 0 
432 1 -10.0166 -19.5969 0 
434 1 -8.88823 -19.5475 0 
436 1 -7.76068 -19.4997 0 
438 1 -6.63345 -19.4533 0 
440 1 -5.50779 -19.408 0 
442 1 -4.38342 -19.3644 0 
444 1 -3.2597 -19.3223 0 
446 1 -2.13641 -19.2814 0 
448 1 -1.01211 -19.2407 0 
449 1 -0.428654 -20.2093 0 
450 1 0.111187 -19.1995 0 
451 1 0.694186 -20.1695 0 
452 1 1.23394 -19.1595 0 
453 1 1.81627 -20.1313 0 
454 1 2.35498 -19.1222 0 
455 1 2.93863 -20.0936 0 
456 1 3.47657 -19.0847 0 
457 1 4.06034 -20.0561 0 
459 1 5.18227 -20.0206 0 
461 1 6.30501 -19.9875 0 
463 1 7.4265 -19.9589 0 
465 1 8.5495 -19.9306 0 
467 1 9.6739 -19.9063 0 
469 1 10.7976 -19.8826 0 
471 1 11.9212 -19.8601 0 
473 1 13.0443 -19.8414 0 
475 1 14.1692 -19.8206 0 
477 1 15.2943 -19.8013 0 
479 1 16.4171 -19.7857 0 
481 1 17.5409 -19.7694 0 
483 1 18.6667 -19.7576 0 
485 1 19.793 -19.7464 0 
487 1 20.9186 -19.7362 0 
489 1 22.0423 -19.7276 0 
491 1 23.1676 -19.7183 0 
493 1 24.2958 -19.7076 0 
495 2 25.4205 -19.6978 0 
497 2 26.5477 -19.6905 0 
499 2 27.6751 -19.6838 0 
502 2 -27.0088 -18.2886 0 
504 2 -25.8793 -18.252 0 
506 2 -24.7497 -18.2147 0 
508 1 -23.6201 -18.1768 0 
510 1 -22.4899 -18.1365 0 
512 1 -21.3597 -18.0934 0 
514 1 -20.2297 -18.053 0 
515 1 -19.6403 -19.004 0 
516 1 -19.099 -18.0103 0 
517 1 -18.5106 -18.9617 0 
518 1 -17.9677 -17.9665 0 
519 1 -17.3803 -18.9198 0 
520 1 -16.8373 -17.9242 0 
521 1 -16.25 -18.8787 0 
523 1 -15.1205 -18.836 0 
525 1 -13.9903 -18.7885 0 
527 1 -12.8606 -18.74 0 
529 1 -11.7321 -18.6923 0 
531 1 -10.6039 -18.6429 0 
533 1 -9.47549 -18.5928 0 
535 1 -8.34707 -18.5433 0 
537 1 -7.2205 -18.495 0 
539 1 -6.09508 -18.4476 0 
541 1 -4.97066 -18.4014 0 
543 1 -3.84611 -18.3579 0 
545 1 -2.72083 -18.3147 0 
547 1 -1.59656 -18.2725 0 
549 1 -0.473581 -18.2297 0 
551 1 0.648875 -18.189 0 
553 1 1.77146 -18.1487 0 
555 1 2.89364 -18.1123 0 
557 1 4.01652 -18.0755 0 
458 1 4.59928 -19.0474 0 
559 1 5.13906 -18.0398 0 
460 1 5.72246 -19.0139 0 
561 1 6.26128 -18.0068 0 
462 1 6.84499 -18.9824 0 
563 1 7.38394 -17.9754 0 
464 1 7.96669 -18.9542 0 
565 1 8.50749 -17.9504 0 
466 1 9.0905 -18.9291 0 
567 1 9.62924 -17.9256 0 
468 1 10.213 -18.9043 0 
569 1 10.752 -17.9019 0 
470 1 11.3375 -18.8812 0 
472 1 12.4645 -18.8599 0 
474 1 13.5881 -18.8416 0 
476 1 14.7131 -18.8211 0 
478 1 15.838 -18.8032 0 
480 1 16.9624 -18.7888 0 
482 1 18.088 -18.774 0 
484 1 19.2132 -18.7627 0 
486 1 20.3397 -18.7537 0 
488 1 21.4664 -18.744 0 
490 1 22.5914 -18.7355 0 
492 1 23.7178 -18.7268 0 
494 1 24.845 -18.7155 0 
496 2 25.9714 -18.7078 0 
498 2 27.0991 -18.7012 0 
500 2 28.2271 -18.6951 0 
601 2 -27.5979 -17.3354 0 
603 2 -26.4686 -17.2992 0 
605 2 -25.3391 -17.2621 0 
607 2 -24.2094 -17.2244 0 
609 1 -23.0808 -17.1865 0 
611 1 -21.9498 -17.1446 0 
613 1 -20.8177 -17.1013 0 
615 1 -19.6869 -17.0585 0 
617 1 -18.5561 -17.015 0 
619 1 -17.4246 -16.9712 0 
522 1 -15.7078 -17.8816 0 
621 1 -16.2934 -16.9277 0 
524 1 -14.5781 -17.8369 0 
623 1 -15.1642 -16.8829 0 
526 1 -13.4478 -17.7888 0 
625 1 -14.0356 -16.8361 0 
528 1 -12.3193 -17.7392 0 
627 1 -12.9061 -16.7866 0 
530 1 -11.1912 -17.6899 0 
532 1 -10.0617 -17.6392 0 
534 1 -8.9336 -17.5882 0 
536 1 -7.80696 -17.5372 0 
538 1 -6.67999 -17.4872 0 
540 1 -5.55541 -17.4376 0 
542 1 -4.43016 -17.3926 0 
544 1 -3.30597 -17.3486 0 
546 1 -2.18264 -17.306 0 
548 1 -1.05778 -17.2626 0 
550 1 0.0673305 -17.2206 0 
552 1 1.18993 -17.1793 0 
554 1 2.31199 -17.139 0 
556 1 3.43428 -17.1023 0 
558 1 4.55628 -17.0661 0 
560 1 5.67846 -17.033 0 
562 1 6.80094 -16.9993 0 
564 1 7.92543 -16.9702 0 
566 1 9.04819 -16.9455 0 
568 1 10.1713 -16.9233 0 
571 1 11.8778 -17.8811 0 
570 1 11.2974 -16.9018 0 
573 1 13.0033 -17.8601 0 
572 1 12.4237 -16.8814 0 
575 1 14.128 -17.8423 0 
574 1 13.5499 -16.8612 0 
577 1 15.2552 -17.8218 0 
576 1 14.6758 -16.8423 0 
579 1 16.383 -17.8067 0 
578 1 15.8035 -16.8255 0 
581 1 17.5087 -17.7931 0 
580 1 16.9296 -16.8101 0 
583 1 18.634 -17.7799 0 
582 1 18.0546 -16.7994 0 
585 1 19.7582 -17.7695 0 
584 1 19.1796 -16.7863 0 
587 1 20.8857 -17.7612 0 
586 1 20.3074 -16.7776 0 
589 1 22.0143 -17.7512 0 
588 1 21.4359 -16.7672 0 
591 1 23.1418 -17.7429 0 
590 1 22.5643 -16.7573 0 
593 1 24.2681 -17.735 0 
592 1 23.6907 -16.75 0 
595 2 25.3948 -17.725 0 
594 1 24.8165 -16.7431 0 
596 2 25.9465 -16.7357 0 
597 2 26.5229 -17.7186 0 
598 2 27.0751 -16.7299 0 
599 2 27.6512 -17.7126 0 
600 2 28.2039 -16.7246 0 
602 2 -27.0583 -16.3463 0 
604 2 -25.929 -16.3096 0 
606 2 -24.7995 -16.2721 0 
608 1 -23.669 -16.2333 0 
610 1 -22.5394 -16.1952 0 
612 1 -21.4083 -16.1511 0 
614 1 -20.2768 -16.1063 0 
616 1 -19.1451 -16.0624 0 
618 1 -18.0139 -16.0196 0 
620 1 -16.8826 -15.9756 0 
622 1 -15.7522 -15.93 0 
624 1 -14.6229 -15.8831 0 
626 1 -13.4938 -15.8348 0 
628 1 -12.3638 -15.7849 0 
629 1 -11.7762 -16.7365 0 
630 1 -11.2343 -15.7321 0 
631 1 -10.6477 -16.6857 0 
632 1 -10.1066 -15.6784 0 
633 1 -9.5199 -16.6333 0 
634 1 -8.97927 -15.625 0 
635 1 -8.39163 -16.58 0 
637 1 -7.2648 -16.5276 0 
639 1 -6.1379 -16.4754 0 
641 1 -5.01169 -16.4295 0 
643 1 -3.88768 -16.3839 0 
645 1 -2.76472 -16.3378 0 
647 1 -1.64154 -16.296 0 
649 1 -0.516086 -16.2536 0 
651 1 0.607874 -16.211 0 
653 1 1.73085 -16.1694 0 
655 1 2.85373 -16.1297 0 
657 1 3.97546 -16.0913 0 
659 1 5.09676 -16.0573 0 
661 1 6.21853 -16.0237 0 
663 1 7.34129 -15.9939 0 
665 1 8.46453 -15.9657 0 
667 1 9.58816 -15.9428 0 
669 1 10.7147 -15.9227 0 
671 1 11.8418 -15.9029 0 
673 1 12.9676 -15.8826 0 
675 1 14.0962 -15.8622 0 
677 1 15.2245 -15.8462 0 
679 1 16.3525 -15.8283 0 
681 1 17.4796 -15.8151 0 
683 1 18.6038 -15.805 0 
685 1 19.731 -15.7945 0 
687 1 20.8584 -15.7831 0 
689 1 21.9864 -15.7739 0 
691 1 23.113 -15.7633 0 
693 1 24.2394 -15.7574 0 
695 2 25.3699 -15.7527 0 
697 2 26.4989 -15.7471 0 
699 2 27.6281 -15.742 0 
701 2 -27.6483 -15.3934 0 
703 2 -26.5193 -15.357 0 
705 2 -25.3901 -15.3199 0 
707 2 -24.2607 -15.282 0 
709 1 -23.1299 -15.2415 0 
711 1 -22.0005 -15.1998 0 
713 1 -20.869 -15.1545 0 
715 1 -19.7369 -15.1112 0 
717 1 -18.6048 -15.0665 0 
719 1 -17.4742 -15.0229 0 
721 1 -16.3433 -14.9786 0 
723 1 -15.2118 -14.9326 0 
725 1 -14.0813 -14.8836 0 
727 1 -12.9511 -14.8327 0 
729 1 -11.8215 -14.7802 0 
731 1 -10.6935 -14.7244 0 
733 1 -9.56558 -14.6707 0 
636 1 -7.85084 -15.5699 0 
735 1 -8.43716 -14.6171 0 
638 1 -6.72251 -15.5184 0 
737 1 -7.30862 -14.5617 0 
640 1 -5.59557 -15.4686 0 
739 1 -6.18245 -14.5086 0 
642 1 -4.47157 -15.4202 0 
644 1 -3.34825 -15.3722 0 
646 1 -2.22255 -15.3271 0 
648 1 -1.09823 -15.2832 0 
650 1 0.0238602 -15.2394 0 
652 1 1.14702 -15.1992 0 
654 1 2.27135 -15.158 0 
656 1 3.39409 -15.1178 0 
658 1 4.51488 -15.0819 0 
660 1 5.63629 -15.0483 0 
662 1 6.75963 -15.0147 0 
664 1 7.88271 -14.9877 0 
666 1 9.00626 -14.9619 0 
668 1 10.1321 -14.9413 0 
670 1 11.2586 -14.9226 0 
672 1 12.3846 -14.9033 0 
674 1 13.5117 -14.8851 0 
676 1 14.641 -14.8657 0 
678 1 15.7691 -14.85 0 
680 1 16.8988 -14.8326 0 
682 1 18.0256 -14.8192 0 
684 1 19.1523 -14.8119 0 
686 1 20.281 -14.8017 0 
688 1 21.4088 -14.7916 0 
690 1 22.5353 -14.7806 0 
692 1 23.664 -14.773 0 
694 1 24.7924 -14.7684 0 
696 2 25.9226 -14.7642 0 
698 2 27.0521 -14.7592 0 
700 2 28.1818 -14.7547 0 
702 2 -27.11 -14.4044 0 
801 2 -27.7009 -13.4516 0 
704 2 -25.9811 -14.3676 0 
803 2 -26.5724 -13.4152 0 
706 2 -24.852 -14.3301 0 
805 2 -25.4437 -13.3781 0 
708 1 -23.722 -14.2901 0 
807 2 -24.3146 -13.3401 0 
710 1 -22.5922 -14.247 0 
809 1 -23.1854 -13.2978 0 
712 1 -21.462 -14.2042 0 
714 1 -20.3294 -14.1602 0 
716 1 -19.1979 -14.1157 0 
718 1 -18.0648 -14.0706 0 
720 1 -16.9324 -14.0262 0 
722 1 -15.8002 -13.9816 0 
724 1 -14.6704 -13.9328 0 
726 1 -13.5412 -13.8813 0 
728 1 -12.4116 -13.8288 0 
730 1 -11.2825 -13.7735 0 
732 1 -10.1521 -13.7198 0 
734 1 -9.02193 -13.6641 0 
736 1 -7.89446 -13.606 0 
738 1 -6.76687 -13.5494 0 
740 1 -5.6395 -13.4949 0 
741 1 -5.05743 -14.4578 0 
742 1 -4.51334 -13.4454 0 
743 1 -3.9316 -14.4083 0 
744 1 -3.3886 -13.3949 0 
745 1 -2.80571 -14.3605 0 
746 1 -2.26508 -13.344 0 
747 1 -1.68243 -14.3128 0 
749 1 -0.558931 -14.2675 0 
751 1 0.563656 -14.2277 0 
753 1 1.68538 -14.187 0 
755 1 2.80911 -14.1464 0 
757 1 3.93367 -14.1074 0 
759 1 5.05525 -14.0721 0 
761 1 6.17734 -14.0372 0 
763 1 7.30269 -14.0071 0 
765 1 8.42677 -13.9819 0 
767 1 9.55265 -13.9599 0 
769 1 10.6785 -13.9411 0 
771 1 11.8062 -13.924 0 
773 1 12.9341 -13.9044 0 
775 1 14.0628 -13.8874 0 
777 1 15.1911 -13.8686 0 
779 1 16.3194 -13.8529 0 
781 1 17.4497 -13.8367 0 
783 1 18.5776 -13.8264 0 
785 1 19.7056 -13.8199 0 
787 1 20.8335 -13.8113 0 
789 1 21.961 -13.7995 0 
791 1 23.0886 -13.7913 0 
793 1 24.2177 -13.7852 0 
795 2 25.3462 -13.7811 0 
797 2 26.4761 -13.7764 0 
799 2 27.6062 -13.772 0 
802 2 -27.164 -12.4626 0 
804 2 -26.0357 -12.4259 0 
806 2 -24.9071 -12.3884 0 
808 1 -23.7787 -12.3492 0 
810 1 -22.6487 -12.3054 0 
811 1 -22.0547 -13.254 0 
812 1 -21.5173 -12.2634 0 
813 1 -20.923 -13.2114 0 
814 1 -20.3848 -12.2179 0 
815 1 -19.7916 -13.1658 0 
816 1 -19.2528 -12.1736 0 
817 1 -18.6589 -13.1218 0 
818 1 -18.1196 -12.1289 0 
819 1 -17.5255 -13.0763 0 
821 1 -16.3927 -13.0306 0 
823 1 -15.2618 -12.9812 0 
825 1 -14.1325 -12.9306 0 
827 1 -13.0028 -12.8785 0 
829 1 -11.8731 -12.8247 0 
831 1 -10.7417 -12.7707 0 
833 1 -9.61209 -12.7137 0 
835 1 -8.48303 -12.6522 0 
837 1 -7.35374 -12.593 0 
839 1 -6.22497 -12.5377 0 
841 1 -5.09643 -12.4828 0 
843 1 -3.97289 -12.4306 0 
845 1 -2.84912 -12.3793 0 
748 1 -1.1412 -13.3002 0 
847 1 -1.72293 -12.3326 0 
849 1 -0.598461 -12.288 0 
750 1 -0.0177585 -13.2572 0 
851 1 0.524606 -12.2448 0 
752 1 1.10387 -13.2155 0 
853 1 1.64757 -12.2031 0 
754 1 2.22687 -13.1734 0 
756 1 3.34877 -13.1341 0 
758 1 4.47178 -13.0964 0 
760 1 5.59511 -13.0616 0 
762 1 6.71982 -13.0304 0 
764 1 7.84428 -13.0017 0 
766 1 8.97048 -12.9808 0 
768 1 10.0997 -12.9597 0 
770 1 11.2269 -12.9429 0 
772 1 12.3544 -12.9238 0 
774 1 13.4849 -12.9063 0 
776 1 14.615 -12.8888 0 
778 1 15.7446 -12.871 0 
780 1 16.8739 -12.8569 0 
782 1 18.0031 -12.842 0 
784 1 19.1319 -12.8346 0 
786 1 20.2574 -12.8268 0 
788 1 21.3839 -12.8191 0 
790 1 22.5135 -12.8099 0 
792 1 23.6427 -12.8035 0 
794 1 24.7716 -12.7976 0 
796 2 25.9 -12.7934 0 
798 2 27.0306 -12.7893 0 
800 2 28.1612 -12.7854 0 
901 2 -27.7557 -11.5099 0 
903 2 -26.6279 -11.4735 0 
905 2 -25.4997 -11.4364 0 
907 2 -24.3713 -11.3985 0 
909 1 -23.2411 -11.3563 0 
911 1 -22.1096 -11.3138 0 
913 1 -20.9783 -11.2722 0 
915 1 -19.8456 -11.2255 0 
917 1 -18.7131 -11.1828 0 
820 1 -16.9874 -12.0814 0 
919 1 -17.5798 -11.1344 0 
822 1 -15.8565 -12.0328 0 
921 1 -16.4491 -11.0862 0 
824 1 -14.7257 -11.9815 0 
923 1 -15.3187 -11.0354 0 
826 1 -13.5944 -11.9297 0 
828 1 -12.4637 -11.8765 0 
830 1 -11.3318 -11.822 0 
832 1 -10.2018 -11.7634 0 
834 1 -9.07295 -11.7013 0 
836 1 -7.94256 -11.6411 0 
838 1 -6.81258 -11.5811 0 
840 1 -5.68608 -11.5248 0 
842 1 -4.55955 -11.4679 0 
844 1 -3.43528 -11.415 0 
846 1 -2.30976 -11.3659 0 
848 1 -1.18596 -11.3164 0 
850 1 -0.0626406 -11.2731 0 
852 1 1.0608 -11.2333 0 
855 1 2.7697 -12.1592 0 
854 1 2.18462 -11.1886 0 
857 1 3.89213 -12.1223 0 
856 1 3.30979 -11.1464 0 
859 1 5.01518 -12.0855 0 
858 1 4.43317 -11.1076 0 
861 1 6.14013 -12.0537 0 
860 1 5.55774 -11.0733 0 
863 1 7.26525 -12.0245 0 
862 1 6.68188 -11.0452 0 
865 1 8.39204 -11.9997 0 
864 1 7.8087 -11.0205 0 
867 1 9.51836 -11.9796 0 
869 1 10.648 -11.9594 0 
871 1 11.776 -11.943 0 
873 1 12.9053 -11.925 0 
875 1 14.0346 -11.908 0 
877 1 15.1647 -11.8909 0 
879 1 16.2953 -11.8745 0 
881 1 17.4242 -11.8606 0 
883 1 18.5535 -11.8489 0 
885 1 19.6825 -11.8401 0 
887 1 20.8094 -11.8335 0 
889 1 21.938 -11.8273 0 
891 1 23.0673 -11.8212 0 
893 1 24.1953 -11.8145 0 
895 2 25.3239 -11.8103 0 
897 2 26.4549 -11.8064 0 
899 2 27.586 -11.8028 0 
902 2 -27.2202 -10.5209 0 
904 2 -26.0925 -10.4842 0 
906 2 -24.9646 -10.4468 0 
908 1 -23.8358 -10.4068 0 
910 1 -22.7047 -10.3648 0 
912 1 -21.5719 -10.3239 0 
914 1 -20.44 -10.2802 0 
916 1 -19.306 -10.235 0 
918 1 -18.1736 -10.1899 0 
920 1 -17.0419 -10.14 0 
922 1 -15.9131 -10.0904 0 
924 1 -14.7815 -10.0373 0 
925 1 -14.1865 -10.9826 0 
926 1 -13.6495 -9.98343 0 
927 1 -13.0553 -10.9281 0 
928 1 -12.5172 -9.92746 0 
929 1 -11.9237 -10.8745 0 
930 1 -11.3844 -9.86935 0 
931 1 -10.7912 -10.8148 0 
933 1 -9.66078 -10.7516 0 
935 1 -8.53003 -10.6896 0 
937 1 -7.40127 -10.6274 0 
939 1 -6.27305 -10.5679 0 
941 1 -5.14588 -10.5082 0 
943 1 -4.01962 -10.4504 0 
945 1 -2.89369 -10.3971 0 
947 1 -1.7714 -10.3442 0 
949 1 -0.647375 -10.2994 0 
951 1 0.476426 -10.257 0 
953 1 1.59791 -10.2141 0 
955 1 2.72057 -10.1727 0 
957 1 3.8456 -10.1308 0 
959 1 4.97206 -10.0942 0 
961 1 6.09866 -10.0622 0 
963 1 7.22415 -10.0385 0 
965 1 8.35219 -10.017 0 
866 1 8.93748 -10.9975 0 
967 1 9.48135 -9.99732 0 
868 1 10.0673 -10.9788 0 
969 1 10.6106 -9.97724 0 
870 1 11.1964 -10.958 0 
971 1 11.7425 -9.959 0 
872 1 12.3251 -10.9427 0 
973 1 12.873 -9.94189 0 
874 1 13.4538 -10.9257 0 
975 1 14.0027 -9.92643 0 
876 1 14.5824 -10.9092 0 
977 1 15.1334 -9.90895 0 
878 1 15.7118 -10.8917 0 
979 1 16.262 -9.89242 0 
880 1 16.8422 -10.8783 0 
981 1 17.3913 -9.88227 0 
882 1 17.9723 -10.8661 0 
983 1 18.522 -9.8704 0 
884 1 19.1031 -10.8543 0 
985 1 19.6546 -9.861 0 
886 1 20.2328 -10.8464 0 
987 1 20.7849 -9.8539 0 
888 1 21.3603 -10.8414 0 
890 1 22.49 -10.8367 0 
989 1 21.9144 -9.85141 0 
892 1 23.6183 -10.8311 0 
991 1 23.0435 -9.84682 0 
894 1 24.7486 -10.8265 0 
993 1 24.1737 -9.84286 0 
896 2 25.8793 -10.8234 0 
995 2 25.3037 -9.84035 0 
898 2 27.0108 -10.8201 0 
997 2 26.4357 -9.83726 0 
900 2 28.1423 -10.817 0 
999 2 27.5677 -9.8344 0 
1001 2 -27.8125 -9.56805 0 
1003 2 -26.6854 -9.5318 0 
1005 2 -25.5581 -9.49477 0 
1007 2 -24.4305 -9.45693 0 
1009 1 -23.3012 -9.41674 0 
1011 1 -22.169 -9.37671 0 
1013 1 -21.0363 -9.33453 0 
1015 1 -19.9028 -9.28952 0 
1017 1 -18.7704 -9.24371 0 
1019 1 -17.6398 -9.19641 0 
1021 1 -16.5085 -9.14533 0 
1023 1 -15.3765 -9.09355 0 
1025 1 -14.2434 -9.04009 0 
1027 1 -13.1119 -8.98469 0 
1029 1 -11.9799 -8.92476 0 
932 1 -10.2522 -9.80444 0 
1031 1 -10.8487 -8.86094 0 
934 1 -9.12177 -9.74003 0 
1033 1 -9.71709 -8.79389 0 
936 1 -7.9926 -9.67651 0 
1035 1 -8.58706 -8.72868 0 
938 1 -6.86324 -9.61388 0 
940 1 -5.73447 -9.55115 0 
942 1 -4.60537 -9.4883 0 
944 1 -3.48142 -9.43163 0 
946 1 -2.35796 -9.37613 0 
948 1 -1.23267 -9.32718 0 
950 1 -0.108555 -9.28164 0 
952 1 1.01334 -9.23672 0 
954 1 2.13543 -9.19612 0 
956 1 3.25858 -9.15625 0 
958 1 4.384 -9.1168 0 
960 1 5.5113 -9.08279 0 
962 1 6.64099 -9.05553 0 
964 1 7.76956 -9.03369 0 
966 1 8.89772 -9.01391 0 
968 1 10.0263 -8.9961 0 
970 1 11.1551 -8.97842 0 
972 1 12.288 -8.96064 0 
974 1 13.4182 -8.94239 0 
976 1 14.5494 -8.92771 0 
978 1 15.6821 -8.90912 0 
980 1 16.8134 -8.89542 0 
982 1 17.9441 -8.8856 0 
984 1 19.0743 -8.87523 0 
986 1 20.2051 -8.8686 0 
988 1 21.3359 -8.8645 0 
990 1 22.4656 -8.86149 0 
992 1 23.5963 -8.85964 0 
994 1 24.7283 -8.85588 0 
996 2 25.8608 -8.85435 0 
998 2 26.9933 -8.85174 0 
1000 2 28.1257 -8.84931 0 
1002 2 -27.2783 -8.57905 0 
1101 2 -27.8711 -7.62598 0 
1004 2 -26.1516 -8.54247 0 
1103 2 -26.7449 -7.58983 0 
1006 2 -25.0246 -8.50509 0 
1105 2 -25.6186 -7.5529 0 
1008 1 -23.8958 -8.46716 0 
1107 2 -24.492 -7.51516 0 
1010 1 -22.7658 -8.42816 0 
1012 1 -21.635 -8.38799 0 
1014 1 -20.5038 -8.34551 0 
1016 1 -19.3711 -8.29907 0 
1018 1 -18.2397 -8.25226 0 
1020 1 -17.1081 -8.20313 0 
1022 1 -15.9756 -8.15058 0 
1024 1 -14.8417 -8.09815 0 
1026 1 -13.7088 -8.0424 0 
1028 1 -12.578 -7.9828 0 
1030 1 -11.4463 -7.9195 0 
1032 1 -10.3147 -7.85166 0 
1034 1 -9.18325 -7.78336 0 
1036 1 -8.05006 -7.7169 0 
1037 1 -7.45509 -8.6626 0 
1038 1 -6.91847 -7.6452 0 
1039 1 -6.32593 -8.59665 0 
1041 1 -5.19893 -8.53071 0 
1043 1 -4.0741 -8.4666 0 
1045 1 -2.95094 -8.40909 0 
1047 1 -1.82763 -8.35591 0 
1049 1 -0.704337 -8.30771 0 
1051 1 0.419526 -8.26154 0 
1053 1 1.54485 -8.21713 0 
1055 1 2.66893 -8.17847 0 
1057 1 3.79279 -8.14059 0 
1059 1 4.91933 -8.10453 0 
1061 1 6.04767 -8.07476 0 
1063 1 7.17833 -8.05069 0 
1065 1 8.31026 -8.03068 0 
1067 1 9.44138 -8.01244 0 
1069 1 10.5721 -7.99492 0 
1071 1 11.7018 -7.97995 0 
1073 1 12.8347 -7.96066 0 
1075 1 13.9651 -7.94456 0 
1077 1 15.0977 -7.92891 0 
1079 1 16.2297 -7.91076 0 
1081 1 17.361 -7.89991 0 
1083 1 18.4921 -7.88965 0 
1085 1 19.6236 -7.88238 0 
1087 1 20.7546 -7.87802 0 
1089 1 21.8864 -7.87553 0 
1091 1 23.0193 -7.87598 0 
1093 1 24.153 -7.87298 0 
1095 2 25.2861 -7.87134 0 
1097 2 26.419 -7.86899 0 
1099 2 27.5519 -7.8668 0 
1102 2 -27.3381 -6.63684 0 
1104 2 -26.2124 -6.60035 0 
1106 2 -25.0865 -6.56307 0 
1108 1 -23.9612 -6.52589 0 
1109 1 -23.3642 -7.47768 0 
1110 1 -22.8328 -6.48991 0 
1111 1 -22.2337 -7.43958 0 
1112 1 -21.7017 -6.45085 0 
1113 1 -21.1025 -7.39835 0 
1114 1 -20.5711 -6.40793 0 
1115 1 -19.9719 -7.35585 0 
1116 1 -19.4428 -6.3641 0 
1117 1 -18.8407 -7.30881 0 
1119 1 -17.7101 -7.261 0 
1121 1 -16.5786 -7.20939 0 
1123 1 -15.4455 -7.1567 0 
1125 1 -14.3105 -7.10235 0 
1127 1 -13.1766 -7.04183 0 
1129 1 -12.0457 -6.9784 0 
1131 1 -10.9147 -6.911 0 
1133 1 -9.7823 -6.84086 0 
1135 1 -8.64955 -6.7737 0 
1137 1 -7.51736 -6.70188 0 
1139 1 -6.38859 -6.62579 0 
1040 1 -5.79034 -7.57574 0 
1141 1 -5.26146 -6.55163 0 
1042 1 -4.66447 -7.50717 0 
1143 1 -4.13722 -6.47753 0 
1044 1 -3.54138 -7.44137 0 
1046 1 -2.41815 -7.38628 0 
1048 1 -1.29419 -7.33099 0 
1050 1 -0.171321 -7.2827 0 
1052 1 0.952522 -7.23765 0 
1054 1 2.07746 -7.19824 0 
1056 1 3.2025 -7.16081 0 
1058 1 4.3299 -7.1273 0 
1060 1 5.45937 -7.0946 0 
1062 1 6.58859 -7.06877 0 
1064 1 7.7199 -7.04652 0 
1066 1 8.85197 -7.02842 0 
1068 1 9.98481 -7.01197 0 
1070 1 11.1165 -6.99467 0 
1072 1 12.2484 -6.9799 0 
1074 1 13.3818 -6.961 0 
1076 1 14.513 -6.94653 0 
1078 1 15.6459 -6.9305 0 
1080 1 16.7794 -6.9158 0 
1082 1 17.9106 -6.90549 0 
1084 1 19.0423 -6.89804 0 
1086 1 20.1761 -6.89255 0 
1088 1 21.3102 -6.89004 0 
1090 1 22.4438 -6.89026 0 
1092 1 23.5762 -6.89018 0 
1094 1 24.7108 -6.88748 0 
1096 2 25.8451 -6.88616 0 
1098 2 26.9784 -6.88422 0 
1100 2 28.1116 -6.88241 0 
1201 2 -27.9311 -5.68349 0 
1203 2 -26.806 -5.64742 0 
1205 2 -25.6808 -5.61059 0 
1207 2 -24.5554 -5.57295 0 