ITEM: TIMESTEP
4900
ITEM: NUMBER OF ATOMS
2850
ITEM: BOX BOUNDS ff ff pp
-42.092 42.092
-42.092 42.092
-0.280613 0.280613
ITEM: ATOMS id type xu yu zu 
1 2 -27.3398 -28.9988 0 
3 2 -26.2107 -28.9642 0 
5 2 -25.0816 -28.9291 0 
7 2 -23.9525 -28.8936 0 
9 2 -22.8235 -28.8577 0 
11 2 -21.6944 -28.8213 0 
13 2 -20.5655 -28.7844 0 
15 2 -19.4366 -28.7472 0 
17 2 -18.3079 -28.7095 0 
19 2 -17.1793 -28.6715 0 
21 2 -16.0508 -28.6331 0 
23 2 -14.9226 -28.5944 0 
25 2 -13.7947 -28.5554 0 
27 2 -12.667 -28.5163 0 
29 2 -11.5396 -28.477 0 
31 2 -10.4126 -28.4376 0 
33 2 -9.28592 -28.3982 0 
35 2 -8.15967 -28.3589 0 
37 2 -7.03386 -28.3198 0 
39 2 -5.90848 -28.281 0 
2 2 -26.7941 -28.0086 0 
4 2 -25.6649 -27.9736 0 
6 2 -24.5357 -27.9381 0 
8 2 -23.4065 -27.902 0 
10 2 -22.2773 -27.8656 0 
12 2 -21.1481 -27.8286 0 
14 2 -20.019 -27.7912 0 
16 2 -18.89 -27.7533 0 
18 2 -17.7611 -27.715 0 
20 2 -16.6324 -27.6763 0 
22 2 -15.5039 -27.6373 0 
24 2 -14.3755 -27.5979 0 
26 2 -13.2475 -27.5582 0 
28 2 -12.1197 -27.5183 0 
30 2 -10.9923 -27.4783 0 
32 2 -9.86522 -27.4382 0 
34 2 -8.73856 -27.3981 0 
36 2 -7.61233 -27.3581 0 
38 2 -6.48656 -27.3184 0 
40 2 -5.36126 -27.2789 0 
41 2 -4.78357 -28.2426 0 
42 2 -4.23645 -27.24 0 
43 2 -3.65912 -28.2046 0 
44 2 -3.11213 -27.2015 0 
45 2 -2.53513 -28.1673 0 
46 2 -1.98828 -27.1638 0 
47 2 -1.41159 -28.1307 0 
48 2 -0.8649 -27.1269 0 
49 2 -0.288464 -28.095 0 
51 2 0.834263 -28.0602 0 
53 2 1.95663 -28.0264 0 
55 2 3.07869 -27.9937 0 
57 2 4.20048 -27.9622 0 
59 2 5.32207 -27.9319 0 
61 2 6.4435 -27.9029 0 
63 2 7.56483 -27.8752 0 
65 2 8.68613 -27.8488 0 
67 2 9.80743 -27.8237 0 
69 2 10.9288 -27.8 0 
71 2 12.0503 -27.7775 0 
73 2 13.1719 -27.7563 0 
75 2 14.2937 -27.7363 0 
77 2 15.4157 -27.7174 0 
79 2 16.538 -27.6997 0 
81 2 17.6605 -27.683 0 
83 2 18.7832 -27.6673 0 
85 2 19.9063 -27.6526 0 
87 2 21.0296 -27.6388 0 
89 2 22.1532 -27.6258 0 
91 2 23.2771 -27.6136 0 
93 2 24.4012 -27.6022 0 
95 2 25.5256 -27.5914 0 
97 2 26.6503 -27.5812 0 
99 2 27.7752 -27.5717 0 
101 2 -27.378 -27.0533 0 
103 2 -26.2487 -27.0183 0 
102 2 -26.833 -26.0633 0 
105 2 -25.1194 -26.9828 0 
104 2 -25.7037 -26.0278 0 
107 2 -23.9901 -26.9468 0 
106 2 -24.5742 -25.9918 0 
109 2 -22.8607 -26.9102 0 
108 1 -23.4445 -25.955 0 
111 2 -21.7314 -26.8732 0 
113 2 -20.6021 -26.8357 0 
115 2 -19.4729 -26.7977 0 
117 2 -18.3437 -26.7591 0 
119 2 -17.2147 -26.7202 0 
121 2 -16.0858 -26.6808 0 
123 2 -14.9572 -26.641 0 
125 2 -13.8287 -26.6009 0 
127 2 -12.7006 -26.5605 0 
129 2 -11.5727 -26.5198 0 
131 2 -10.4452 -26.479 0 
133 2 -9.31813 -26.4382 0 
135 2 -8.19146 -26.3973 0 
137 2 -7.06526 -26.3566 0 
139 2 -5.93954 -26.3162 0 
141 2 -4.81433 -26.2762 0 
143 2 -3.68963 -26.2366 0 
145 2 -2.56545 -26.1977 0 
147 2 -1.44177 -26.1596 0 
50 2 0.258046 -27.0909 0 
149 2 -0.318563 -26.1224 0 
52 2 1.38059 -27.056 0 
151 2 0.804196 -26.0862 0 
54 2 2.50279 -27.0222 0 
153 2 1.92656 -26.0512 0 
56 2 3.62468 -26.9896 0 
155 2 3.04857 -26.0174 0 
58 2 4.74633 -26.9582 0 
157 2 4.1703 -25.9849 0 
60 2 5.86779 -26.9282 0 
159 2 5.2918 -25.9538 0 
62 2 6.98913 -26.8996 0 
64 2 8.11041 -26.8723 0 
66 2 9.23169 -26.8465 0 
68 2 10.353 -26.822 0 
70 2 11.4745 -26.7989 0 
72 2 12.596 -26.7771 0 
74 2 13.7178 -26.7566 0 
76 2 14.8398 -26.7373 0 
78 2 15.962 -26.7192 0 
80 2 17.0845 -26.7023 0 
82 2 18.2073 -26.6863 0 
84 2 19.3304 -26.6714 0 
86 2 20.4538 -26.6575 0 
88 2 21.5774 -26.6444 0 
90 2 22.7014 -26.6321 0 
92 2 23.8256 -26.6206 0 
94 2 24.9501 -26.6098 0 
96 2 26.0749 -26.5996 0 
98 2 27.2 -26.5901 0 
100 2 28.3253 -26.5811 0 
201 2 -27.4179 -25.1085 0 
203 2 -26.2885 -25.0731 0 
205 2 -25.159 -25.0372 0 
207 2 -24.0295 -25.0007 0 
209 1 -22.8992 -24.9628 0 
110 1 -22.3148 -25.9176 0 
211 1 -21.7692 -24.9245 0 
112 1 -21.1853 -25.8797 0 
213 1 -20.6395 -24.8858 0 
114 1 -20.0558 -25.8414 0 
215 1 -19.51 -24.8466 0 
116 1 -18.9264 -25.8025 0 
217 1 -18.3805 -24.8068 0 
118 1 -17.7972 -25.7632 0 
120 1 -16.6682 -25.7235 0 
122 1 -15.5395 -25.6833 0 
124 1 -14.4109 -25.6427 0 
126 1 -13.2826 -25.6018 0 
128 1 -12.1548 -25.5606 0 
130 1 -11.0273 -25.5191 0 
132 1 -9.90011 -25.4776 0 
134 1 -8.77335 -25.4361 0 
136 1 -7.64703 -25.3945 0 
138 1 -6.52124 -25.3532 0 
140 1 -5.39597 -25.3122 0 
142 1 -4.27119 -25.2717 0 
144 1 -3.14692 -25.2318 0 
146 1 -2.02312 -25.1927 0 
148 1 -0.899705 -25.1544 0 
150 1 0.223277 -25.1172 0 
152 1 1.34591 -25.0811 0 
154 1 2.46819 -25.0462 0 
156 1 3.59028 -25.0128 0 
158 1 4.71213 -24.9808 0 
160 1 5.8338 -24.9503 0 
161 2 6.41316 -25.9242 0 
162 1 6.95536 -24.9213 0 
163 2 7.53443 -25.896 0 
164 1 8.07699 -24.8939 0 
165 2 8.65568 -25.8693 0 
167 2 9.77697 -25.844 0 
166 1 9.19871 -24.8679 0 
169 2 10.8984 -25.8202 0 
168 1 10.3205 -24.8435 0 
171 2 12.0199 -25.7978 0 
170 1 11.4424 -24.8204 0 
173 2 13.1416 -25.7768 0 
175 2 14.2636 -25.7571 0 
177 2 15.3858 -25.7386 0 
179 2 16.5083 -25.7213 0 
181 2 17.6311 -25.7052 0 
183 2 18.7543 -25.6901 0 
185 2 19.8777 -25.6759 0 
187 2 21.0014 -25.6627 0 
189 2 22.1254 -25.6504 0 
191 2 23.2498 -25.6388 0 
193 2 24.3744 -25.628 0 
195 2 25.4993 -25.6179 0 
197 2 26.6245 -25.6084 0 
199 2 27.75 -25.5994 0 
202 2 -26.8739 -24.1187 0 
204 2 -25.7444 -24.0828 0 
206 2 -24.6148 -24.0464 0 
208 1 -23.4846 -24.0088 0 
210 1 -22.3543 -23.9701 0 
212 1 -21.2242 -23.9309 0 
214 1 -20.0944 -23.8914 0 
216 1 -18.9647 -23.8513 0 
219 1 -17.2513 -24.7668 0 
218 1 -17.8352 -23.8108 0 
221 1 -16.1224 -24.7262 0 
220 1 -16.706 -23.7698 0 
222 1 -15.5771 -23.7283 0 
223 1 -14.9936 -24.6852 0 
224 1 -14.4484 -23.6864 0 
225 1 -13.8653 -24.6437 0 
227 1 -12.7372 -24.6019 0 
229 1 -11.6095 -24.5599 0 
231 1 -10.4822 -24.5177 0 
233 1 -9.35535 -24.4754 0 
235 1 -8.22895 -24.433 0 
237 1 -7.10301 -24.3908 0 
239 1 -5.97762 -24.3489 0 
241 1 -4.85267 -24.3074 0 
243 1 -3.72824 -24.2664 0 
245 1 -2.60428 -24.2262 0 
247 1 -1.48072 -24.1869 0 
249 1 -0.357577 -24.1485 0 
251 1 0.765234 -24.1114 0 
253 1 1.88779 -24.0755 0 
255 1 3.01012 -24.0411 0 
257 1 4.13225 -24.0081 0 
259 1 5.25422 -23.9766 0 
261 1 6.37611 -23.9468 0 
263 1 7.49801 -23.9186 0 
265 1 8.61995 -23.892 0 
267 1 9.74211 -23.8668 0 
269 1 10.8643 -23.8432 0 
271 1 11.9868 -23.8211 0 
172 1 12.5645 -24.7989 0 
273 1 13.1094 -23.8003 0 
174 1 13.6868 -24.7786 0 
275 1 14.2322 -23.7809 0 
176 1 14.8094 -24.7598 0 
277 1 15.3553 -23.7628 0 
178 1 15.9322 -24.742 0 
279 1 16.4786 -23.7459 0 
180 1 17.0552 -24.7255 0 
281 1 17.6021 -23.7302 0 
182 1 18.1785 -24.7101 0 
283 1 18.7259 -23.7153 0 
184 1 19.3021 -24.6956 0 
285 1 19.8499 -23.7016 0 
186 1 20.426 -24.6822 0 
287 1 20.9742 -23.6887 0 
188 1 21.5501 -24.6695 0 
289 1 22.0986 -23.6765 0 
190 1 22.6745 -24.6577 0 
291 1 23.2233 -23.6653 0 
192 1 23.7991 -24.6467 0 
293 1 24.3481 -23.6546 0 
194 1 24.9239 -24.6363 0 
295 2 25.4729 -23.6443 0 
196 2 26.0488 -24.6264 0 
198 2 27.1745 -24.6176 0 
200 2 28.3003 -24.6093 0 
301 2 -27.4598 -23.1644 0 
303 2 -26.3303 -23.1287 0 
305 2 -25.2007 -23.0924 0 
307 2 -24.071 -23.0555 0 
309 1 -22.9403 -23.0164 0 
311 1 -21.8099 -22.9769 0 
313 1 -20.6797 -22.937 0 
315 1 -19.5497 -22.8965 0 
317 1 -18.4199 -22.8556 0 
319 1 -17.2904 -22.8142 0 
321 1 -16.1612 -22.7722 0 
323 1 -15.0323 -22.7298 0 
226 1 -13.3202 -23.644 0 
325 1 -13.9036 -22.6869 0 
327 1 -12.7755 -22.6435 0 
228 1 -12.1923 -23.6013 0 
329 1 -11.6477 -22.6 0 
230 1 -11.0648 -23.5585 0 
331 1 -10.5204 -22.5561 0 
232 1 -9.93772 -23.5154 0 
333 1 -9.39352 -22.5122 0 
234 1 -8.81112 -23.4722 0 
236 1 -7.68495 -23.4291 0 
238 1 -6.55931 -23.3862 0 
240 1 -5.43419 -23.3437 0 
242 1 -4.30957 -23.3017 0 
244 1 -3.18546 -23.2603 0 
246 1 -2.06172 -23.2199 0 
248 1 -0.938382 -23.1804 0 
250 1 0.184603 -23.1422 0 
252 1 1.30732 -23.1052 0 
254 1 2.42983 -23.0696 0 
256 1 3.55216 -23.0357 0 
258 1 4.67437 -23.0033 0 
260 1 5.79658 -22.9725 0 
262 1 6.91874 -22.9434 0 
264 1 8.04098 -22.916 0 
266 1 9.16333 -22.8903 0 
268 1 10.2859 -22.866 0 
270 1 11.4086 -22.8434 0 
272 1 12.5315 -22.822 0 
274 1 13.6546 -22.8021 0 
276 1 14.7779 -22.7836 0 
278 1 15.9014 -22.7662 0 
280 1 17.0252 -22.7501 0 
282 1 18.1491 -22.735 0 
284 1 19.2734 -22.7209 0 
286 1 20.3979 -22.7078 0 
288 1 21.5225 -22.6954 0 
290 1 22.6473 -22.6839 0 
292 1 23.7722 -22.673 0 
294 1 24.8974 -22.6626 0 
297 2 26.5987 -23.6355 0 
296 2 26.0228 -22.6533 0 
299 2 27.7248 -23.6273 0 
298 2 27.149 -22.6452 0 
300 2 28.2755 -22.6376 0 
302 2 -26.9167 -22.1747 0 
304 2 -25.7871 -22.1385 0 
306 2 -24.6574 -22.1018 0 
308 1 -23.5269 -22.0634 0 
310 1 -22.3963 -22.0236 0 
312 1 -21.2659 -21.9833 0 
314 1 -20.1356 -21.9425 0 
316 1 -19.0055 -21.9012 0 
318 1 -17.8757 -21.8593 0 
320 1 -16.7461 -21.8169 0 
322 1 -15.6169 -21.774 0 
324 1 -14.488 -21.7306 0 
326 1 -13.3594 -21.6866 0 
328 1 -12.2312 -21.6423 0 
330 1 -11.1036 -21.5977 0 
332 1 -9.97644 -21.553 0 
334 1 -8.84972 -21.5081 0 
335 1 -8.26707 -22.4682 0 
336 1 -7.72349 -21.4632 0 
337 1 -7.14119 -22.4243 0 
338 1 -6.59782 -21.4186 0 
339 1 -6.01585 -22.3807 0 
340 1 -5.47272 -21.3744 0 
341 1 -4.89102 -22.3376 0 
343 1 -3.76667 -22.2951 0 
345 1 -2.64279 -22.2535 0 
347 1 -1.51933 -22.2129 0 
349 1 -0.396208 -22.1733 0 
351 1 0.726651 -22.1353 0 
353 1 1.84936 -22.0986 0 
355 1 2.97195 -22.0635 0 
357 1 4.09436 -22.0301 0 
359 1 5.21673 -21.9985 0 
361 1 6.33917 -21.9684 0 
363 1 7.46167 -21.9403 0 
365 1 8.58432 -21.9138 0 
367 1 9.70701 -21.8889 0 
369 1 10.8299 -21.8656 0 
371 1 11.953 -21.8438 0 
373 1 13.0764 -21.8234 0 
375 1 14.2001 -21.8044 0 
377 1 15.3239 -21.7866 0 
379 1 16.4479 -21.77 0 
381 1 17.572 -21.7546 0 
383 1 18.6965 -21.7402 0 
385 1 19.8212 -21.7268 0 
387 1 20.9459 -21.7142 0 
389 1 22.0709 -21.7025 0 
391 1 23.196 -21.6914 0 
393 1 24.3213 -21.681 0 
395 2 25.4466 -21.6709 0 
397 2 26.573 -21.6629 0 
399 2 27.6998 -21.6554 0 
401 2 -27.5037 -21.2208 0 
403 2 -26.3741 -21.1849 0 
402 2 -26.9617 -20.2313 0 
405 2 -25.2445 -21.1483 0 
404 2 -25.8321 -20.1949 0 
407 2 -24.1147 -21.111 0 
409 1 -22.9836 -21.0709 0 
411 1 -21.8529 -21.0302 0 
413 1 -20.7224 -20.9892 0 
415 1 -19.592 -20.9476 0 
417 1 -18.4619 -20.9053 0 
419 1 -17.332 -20.8626 0 
421 1 -16.2023 -20.8191 0 
423 1 -15.073 -20.7751 0 
425 1 -13.9441 -20.7306 0 
427 1 -12.8155 -20.6857 0 
429 1 -11.6874 -20.6403 0 
431 1 -10.5598 -20.5947 0 
433 1 -9.43277 -20.5489 0 
435 1 -8.30628 -20.5031 0 
437 1 -7.18031 -20.4574 0 
439 1 -6.05484 -20.4119 0 
342 1 -4.34813 -21.3306 0 
441 1 -4.92998 -20.367 0 
344 1 -3.224 -21.2877 0 
443 1 -3.80558 -20.3227 0 
346 1 -2.10037 -21.2459 0 
445 1 -2.68169 -20.2795 0 
348 1 -0.977075 -21.2051 0 
447 1 -1.55817 -20.2375 0 
350 1 0.146022 -21.1657 0 
352 1 1.26883 -21.1279 0 
354 1 2.39149 -21.0917 0 
356 1 3.51407 -21.0572 0 
358 1 4.63656 -21.0245 0 
360 1 5.75908 -20.9936 0 
362 1 6.88183 -20.9646 0 
364 1 8.00467 -20.9374 0 
366 1 9.12767 -20.9118 0 
368 1 10.2508 -20.8879 0 
370 1 11.3743 -20.8655 0 
372 1 12.4979 -20.8447 0 
374 1 13.6218 -20.8251 0 
376 1 14.7459 -20.8069 0 
378 1 15.8701 -20.79 0 
380 1 16.9946 -20.7742 0 
382 1 18.1192 -20.7595 0 
384 1 19.244 -20.7458 0 
386 1 20.369 -20.733 0 
388 1 21.4943 -20.721 0 
390 1 22.6196 -20.7099 0 
392 1 23.7452 -20.6993 0 
394 1 24.8709 -20.6893 0 
396 2 25.9969 -20.6804 0 
398 2 27.1238 -20.673 0 
400 2 28.251 -20.6661 0 
501 2 -27.5497 -19.2779 0 
503 2 -26.4202 -19.2417 0 
505 2 -25.2906 -19.2049 0 
406 2 -24.7023 -20.1579 0 
507 2 -24.1608 -19.1673 0 
408 1 -23.5716 -20.1188 0 
509 1 -23.0296 -19.1263 0 
410 1 -22.4407 -20.0779 0 
511 1 -21.8986 -19.0846 0 
412 1 -21.31 -20.0365 0 
513 1 -20.7677 -19.0424 0 
414 1 -20.1794 -19.9947 0 
416 1 -19.0489 -19.9521 0 
418 1 -17.9187 -19.909 0 
420 1 -16.7888 -19.8652 0 
422 1 -15.659 -19.8206 0 
424 1 -14.5296 -19.7756 0 
426 1 -13.4006 -19.73 0 
428 1 -12.272 -19.6839 0 
430 1 -11.144 -19.6374 0 
432 1 -10.0165 -19.5908 0 
434 1 -8.88954 -19.5439 0 
436 1 -7.76319 -19.4972 0 
438 1 -6.63743 -19.4504 0 
440 1 -5.51218 -19.4041 0 
442 1 -4.38753 -19.3586 0 
444 1 -3.26334 -19.3139 0 
446 1 -2.13961 -19.2705 0 
448 1 -1.01625 -19.2284 0 
449 1 -0.434946 -20.1968 0 
450 1 0.106837 -19.1879 0 
451 1 0.687978 -20.1577 0 
452 1 1.22974 -19.149 0 
453 1 1.81074 -20.1201 0 
454 1 2.35263 -19.1122 0 
455 1 2.93351 -20.0845 0 
456 1 3.47548 -19.0772 0 
457 1 4.0562 -20.0508 0 
459 1 5.17894 -20.0189 0 
461 1 6.3018 -19.9891 0 
463 1 7.42482 -19.961 0 
465 1 8.54805 -19.9347 0 
467 1 9.67144 -19.9102 0 
469 1 10.795 -19.8872 0 
471 1 11.9189 -19.8659 0 
473 1 13.0429 -19.846 0 
475 1 14.1672 -19.8273 0 
477 1 15.2918 -19.8099 0 
479 1 16.4166 -19.7938 0 
481 1 17.5415 -19.7788 0 
483 1 18.6666 -19.7648 0 
485 1 19.7918 -19.7518 0 
487 1 20.9174 -19.7397 0 
489 1 22.043 -19.7283 0 
491 1 23.1687 -19.7177 0 
493 1 24.2946 -19.7075 0 
495 2 25.4205 -19.6978 0 
497 2 26.5477 -19.6905 0 
499 2 27.6751 -19.6838 0 
502 2 -27.0088 -18.2886 0 
504 2 -25.8793 -18.252 0 
506 2 -24.7497 -18.2147 0 
508 1 -23.6189 -18.1751 0 
510 1 -22.488 -18.1333 0 
512 1 -21.3569 -18.091 0 
514 1 -20.2259 -18.0479 0 
515 1 -19.637 -18.9997 0 
516 1 -19.0951 -18.0043 0 
517 1 -18.5064 -18.9562 0 
518 1 -17.9643 -17.9597 0 
519 1 -17.376 -18.9119 0 
520 1 -16.8338 -17.9144 0 
521 1 -16.246 -18.8671 0 
523 1 -15.1161 -18.8216 0 
525 1 -13.9866 -18.7754 0 
527 1 -12.8575 -18.7286 0 
529 1 -11.729 -18.6813 0 
531 1 -10.6009 -18.6337 0 
533 1 -9.47346 -18.5858 0 
535 1 -8.34661 -18.5379 0 
537 1 -7.2205 -18.49 0 
539 1 -6.09492 -18.4424 0 
541 1 -4.96995 -18.3954 0 
543 1 -3.84552 -18.3492 0 
545 1 -2.72151 -18.3042 0 
547 1 -1.59792 -18.2606 0 
549 1 -0.474609 -18.2186 0 
551 1 0.648374 -18.1783 0 
553 1 1.77138 -18.1401 0 
555 1 2.89433 -18.104 0 
557 1 4.01737 -18.07 0 
458 1 4.59838 -19.0444 0 
559 1 5.14058 -18.0383 0 
460 1 5.72148 -19.0136 0 
561 1 6.26393 -18.0084 0 
462 1 6.84461 -18.9847 0 
563 1 7.38751 -17.9806 0 
464 1 7.96802 -18.9577 0 
565 1 8.51129 -17.9546 0 
466 1 9.09167 -18.9324 0 
567 1 9.63537 -17.9305 0 
468 1 10.2154 -18.9089 0 
569 1 10.7597 -17.9081 0 
470 1 11.3395 -18.887 0 
472 1 12.4638 -18.8666 0 
474 1 13.5883 -18.8476 0 
476 1 14.7131 -18.8299 0 
478 1 15.8382 -18.8134 0 
480 1 16.9634 -18.7981 0 
482 1 18.0888 -18.7838 0 
484 1 19.2143 -18.7706 0 
486 1 20.3401 -18.7583 0 
488 1 21.466 -18.7467 0 
490 1 22.592 -18.736 0 
492 1 23.7183 -18.7259 0 
494 1 24.8447 -18.716 0 
496 2 25.9714 -18.7078 0 
498 2 27.0991 -18.7012 0 
500 2 28.2271 -18.6951 0 
601 2 -27.5979 -17.3354 0 
603 2 -26.4686 -17.2992 0 
605 2 -25.3391 -17.2621 0 
607 2 -24.2094 -17.2244 0 
609 1 -23.0781 -17.1825 0 
611 1 -21.947 -17.1401 0 
613 1 -20.8158 -17.0969 0 
615 1 -19.6847 -17.053 0 
617 1 -18.5538 -17.0084 0 
619 1 -17.4228 -16.9627 0 
522 1 -15.7035 -17.8685 0 
621 1 -16.2921 -16.9164 0 
524 1 -14.5736 -17.8218 0 
623 1 -15.1617 -16.8693 0 
526 1 -13.444 -17.7743 0 
625 1 -14.0316 -16.8212 0 
528 1 -12.3149 -17.7263 0 
627 1 -12.9019 -16.7726 0 
530 1 -11.1863 -17.6778 0 
532 1 -10.0583 -17.6289 0 
534 1 -8.93099 -17.5799 0 
536 1 -7.80431 -17.5307 0 
538 1 -6.67828 -17.4818 0 
540 1 -5.55288 -17.4332 0 
542 1 -4.42814 -17.3855 0 
544 1 -3.30391 -17.3388 0 
546 1 -2.18008 -17.2935 0 
548 1 -1.0566 -17.25 0 
550 1 0.0665674 -17.2081 0 
552 1 1.18965 -17.1685 0 
554 1 2.31276 -17.131 0 
556 1 3.43593 -17.0959 0 
558 1 4.55922 -17.063 0 
560 1 5.68271 -17.0322 0 
562 1 6.80648 -17.0035 0 
564 1 7.93051 -16.9768 0 
566 1 9.05482 -16.9521 0 
568 1 10.1794 -16.9292 0 
571 1 11.8843 -17.8872 0 
570 1 11.3044 -16.9078 0 
573 1 13.0092 -17.8678 0 
572 1 12.4295 -16.8881 0 
575 1 14.1342 -17.8498 0 
574 1 13.5548 -16.8695 0 
577 1 15.2595 -17.8329 0 
576 1 14.6804 -16.8524 0 
579 1 16.3851 -17.8174 0 
578 1 15.8063 -16.8365 0 
581 1 17.5108 -17.8029 0 
580 1 16.9323 -16.8218 0 
583 1 18.6366 -17.7893 0 
582 1 18.0585 -16.8081 0 
585 1 19.7626 -17.7768 0 
584 1 19.1849 -16.7953 0 
587 1 20.8889 -17.7652 0 
586 1 20.3114 -16.7835 0 
589 1 22.0153 -17.7543 0 
588 1 21.4381 -16.7725 0 
591 1 23.1417 -17.7441 0 
590 1 22.565 -16.7623 0 
593 1 24.2683 -17.7344 0 
592 1 23.6919 -16.7526 0 
595 2 25.3948 -17.725 0 
594 1 24.8191 -16.7433 0 
596 2 25.9465 -16.7357 0 
597 2 26.5229 -17.7186 0 
598 2 27.0751 -16.7299 0 
599 2 27.6512 -17.7126 0 
600 2 28.2039 -16.7246 0 
602 2 -27.0583 -16.3463 0 
604 2 -25.929 -16.3096 0 
606 2 -24.7995 -16.2721 0 
608 1 -23.6688 -16.2321 0 
610 1 -22.5377 -16.1897 0 
612 1 -21.4066 -16.1465 0 
614 1 -20.2752 -16.1024 0 
616 1 -19.144 -16.0576 0 
618 1 -18.0129 -16.012 0 
620 1 -16.8818 -15.9654 0 
622 1 -15.7509 -15.9178 0 
624 1 -14.6204 -15.8693 0 
626 1 -13.4901 -15.82 0 
628 1 -12.3604 -15.7699 0 
629 1 -11.7727 -16.7232 0 
630 1 -11.2311 -15.7191 0 
631 1 -10.6441 -16.6733 0 
632 1 -10.1024 -15.6678 0 
633 1 -9.51615 -16.6231 0 
634 1 -8.97449 -15.616 0 
635 1 -8.38886 -16.5726 0 
637 1 -7.26229 -16.5223 0 
639 1 -6.13643 -16.4722 0 
641 1 -5.01133 -16.4227 0 
643 1 -3.88677 -16.3744 0 
645 1 -2.76277 -16.3273 0 
647 1 -1.63913 -16.282 0 
649 1 -0.515846 -16.2385 0 
651 1 0.607395 -16.1972 0 
653 1 1.73053 -16.1583 0 
655 1 2.85378 -16.1219 0 
657 1 3.97727 -16.0878 0 
659 1 5.10102 -16.0561 0 
661 1 6.225 -16.0265 0 
663 1 7.34923 -15.9991 0 
665 1 8.47375 -15.9736 0 
667 1 9.59862 -15.9501 0 
669 1 10.7239 -15.9284 0 
671 1 11.8494 -15.9081 0 
673 1 12.975 -15.8893 0 
675 1 14.101 -15.8718 0 
677 1 15.2272 -15.8556 0 
679 1 16.3535 -15.8406 0 
681 1 17.4801 -15.8267 0 
683 1 18.6068 -15.8139 0 
685 1 19.7337 -15.8018 0 
687 1 20.8607 -15.7907 0 
689 1 21.9879 -15.7805 0 
691 1 23.1152 -15.7707 0 
693 1 24.2426 -15.7616 0 
695 2 25.3699 -15.7527 0 
697 2 26.4989 -15.7471 0 
699 2 27.6281 -15.742 0 
701 2 -27.6483 -15.3934 0 
703 2 -26.5193 -15.357 0 
705 2 -25.3901 -15.3199 0 
707 2 -24.2607 -15.282 0 
709 1 -23.1293 -15.2396 0 
711 1 -21.9981 -15.1964 0 
713 1 -20.8669 -15.1526 0 
715 1 -19.7355 -15.1077 0 
717 1 -18.604 -15.062 0 
719 1 -17.4726 -15.0152 0 
721 1 -16.3413 -14.9674 0 
723 1 -15.2103 -14.9185 0 
725 1 -14.0795 -14.8687 0 
727 1 -12.9491 -14.8179 0 
729 1 -11.8192 -14.7663 0 
731 1 -10.6898 -14.714 0 
733 1 -9.56122 -14.6609 0 
636 1 -7.84734 -15.5642 0 
735 1 -8.43333 -14.6076 0 
638 1 -6.72088 -15.5126 0 
737 1 -7.30623 -14.5544 0 
640 1 -5.59522 -15.4612 0 
739 1 -6.18001 -14.5013 0 
642 1 -4.47028 -15.4111 0 
644 1 -3.34602 -15.3621 0 
646 1 -2.22217 -15.3148 0 
648 1 -1.09869 -15.2695 0 
650 1 0.0246016 -15.2265 0 
652 1 1.14785 -15.1859 0 
654 1 2.27124 -15.1481 0 
656 1 3.39486 -15.1128 0 
658 1 4.51872 -15.08 0 
660 1 5.64286 -15.0495 0 
662 1 6.7674 -15.0213 0 
664 1 7.89225 -14.9951 0 
666 1 9.01739 -14.9709 0 
668 1 10.1429 -14.9487 0 
670 1 11.2687 -14.9281 0 
672 1 12.3948 -14.9089 0 
674 1 13.5211 -14.8911 0 
676 1 14.6477 -14.8746 0 
678 1 15.7744 -14.8594 0 
680 1 16.9014 -14.8452 0 
682 1 18.0285 -14.8322 0 
684 1 19.1558 -14.8201 0 
686 1 20.2832 -14.8089 0 
688 1 21.4108 -14.7985 0 
690 1 22.5384 -14.7888 0 
692 1 23.6663 -14.7798 0 
694 1 24.7942 -14.7711 0 
696 2 25.9226 -14.7642 0 
698 2 27.0521 -14.7592 0 
700 2 28.1818 -14.7547 0 
702 2 -27.11 -14.4044 0 
801 2 -27.7009 -13.4516 0 
704 2 -25.9811 -14.3676 0 
803 2 -26.5724 -13.4152 0 
706 2 -24.852 -14.3301 0 
805 2 -25.4437 -13.3781 0 
708 1 -23.7214 -14.2898 0 
807 2 -24.3146 -13.3401 0 
710 1 -22.5904 -14.2468 0 
809 1 -23.1836 -13.2974 0 
712 1 -21.4593 -14.203 0 
714 1 -20.328 -14.1584 0 
716 1 -19.1965 -14.1127 0 
718 1 -18.0648 -14.0659 0 
720 1 -16.9331 -14.018 0 
722 1 -15.8016 -13.9689 0 
724 1 -14.6703 -13.9186 0 
726 1 -13.5393 -13.8673 0 
728 1 -12.4087 -13.815 0 
730 1 -11.2786 -13.7617 0 
732 1 -10.1492 -13.7075 0 
734 1 -9.02058 -13.6527 0 
736 1 -7.89273 -13.5979 0 
738 1 -6.76589 -13.543 0 
740 1 -5.63986 -13.4886 0 
741 1 -5.0545 -14.449 0 
742 1 -4.51469 -13.4351 0 
743 1 -3.92985 -14.3979 0 
744 1 -3.39024 -13.3834 0 
745 1 -2.80574 -14.3485 0 
746 1 -2.26639 -13.3337 0 
747 1 -1.6821 -14.3012 0 
749 1 -0.558673 -14.2562 0 
751 1 0.564653 -14.214 0 
753 1 1.68814 -14.1745 0 
755 1 2.81182 -14.1379 0 
757 1 3.93587 -14.104 0 
759 1 5.06019 -14.0725 0 
761 1 6.18496 -14.0434 0 
763 1 7.31012 -14.0166 0 
765 1 8.43565 -13.9917 0 
767 1 9.56149 -13.9689 0 
769 1 10.6876 -13.9479 0 
771 1 11.8141 -13.9284 0 
773 1 12.9409 -13.9103 0 
775 1 14.0678 -13.8936 0 
777 1 15.1949 -13.878 0 
779 1 16.3223 -13.8637 0 
781 1 17.4498 -13.8505 0 
783 1 18.5775 -13.8382 0 
785 1 19.7054 -13.827 0 
787 1 20.8335 -13.8166 0 
789 1 21.9615 -13.8068 0 
791 1 23.0897 -13.7979 0 
793 1 24.2179 -13.7893 0 
795 2 25.3462 -13.7811 0 
797 2 26.4761 -13.7764 0 
799 2 27.6062 -13.772 0 
802 2 -27.164 -12.4626 0 
804 2 -26.0357 -12.4259 0 
806 2 -24.9071 -12.3884 0 
808 1 -23.777 -12.348 0 
810 1 -22.6464 -12.3048 0 
811 1 -22.0525 -13.2538 0 
812 1 -21.5154 -12.2608 0 
813 1 -20.9212 -13.2094 0 
814 1 -20.384 -12.2157 0 
815 1 -19.7898 -13.164 0 
816 1 -19.2524 -12.1693 0 
817 1 -18.6581 -13.1173 0 
818 1 -18.1205 -12.1217 0 
819 1 -17.5262 -13.0695 0 
821 1 -16.3944 -13.0204 0 
823 1 -15.2627 -12.9699 0 
825 1 -14.131 -12.9182 0 
827 1 -12.9997 -12.8651 0 
829 1 -11.8689 -12.8111 0 
831 1 -10.7388 -12.7558 0 
833 1 -9.6093 -12.6997 0 
835 1 -8.48064 -12.6432 0 
837 1 -7.35297 -12.5864 0 
839 1 -6.22626 -12.5299 0 
841 1 -5.10052 -12.4741 0 
843 1 -3.97553 -12.4196 0 
845 1 -2.85134 -12.3674 0 
748 1 -1.14289 -13.2866 0 
847 1 -1.72767 -12.3178 0 
849 1 -0.60415 -12.2713 0 
750 1 -0.0194525 -13.2423 0 
851 1 0.519509 -12.2282 0 
752 1 1.10411 -13.2013 0 
853 1 1.64343 -12.1885 0 
754 1 2.22797 -13.1631 0 
756 1 3.35218 -13.1279 0 
758 1 4.4768 -13.0954 0 
760 1 5.60183 -13.0655 0 
762 1 6.7273 -13.038 0 
764 1 7.85321 -13.0126 0 
766 1 8.97951 -12.9891 0 
768 1 10.1061 -12.9676 0 
770 1 11.233 -12.9478 0 
772 1 12.3602 -12.9294 0 
774 1 13.4877 -12.9124 0 
776 1 14.6152 -12.8966 0 
778 1 15.7431 -12.8821 0 
780 1 16.8711 -12.8687 0 
782 1 17.9992 -12.8563 0 
784 1 19.1275 -12.845 0 
786 1 20.2559 -12.8345 0 
788 1 21.3844 -12.8248 0 
790 1 22.5131 -12.8159 0 
792 1 23.6418 -12.8074 0 
794 1 24.7707 -12.7995 0 
796 2 25.9 -12.7934 0 
798 2 27.0306 -12.7893 0 
800 2 28.1612 -12.7854 0 
901 2 -27.7557 -11.5099 0 
903 2 -26.6279 -11.4735 0 
905 2 -25.4997 -11.4364 0 
907 2 -24.3713 -11.3985 0 
909 1 -23.2408 -11.3558 0 
911 1 -22.1102 -11.3122 0 
913 1 -20.9791 -11.2677 0 
915 1 -19.8477 -11.2217 0 
917 1 -18.716 -11.1745 0 
820 1 -16.9885 -12.0727 0 
919 1 -17.584 -11.1258 0 
822 1 -15.8565 -12.0222 0 
921 1 -16.4518 -11.0755 0 
824 1 -14.7245 -11.9704 0 
923 1 -15.3195 -11.0237 0 
826 1 -13.5926 -11.9169 0 
828 1 -12.4609 -11.8621 0 
830 1 -11.3299 -11.806 0 
832 1 -10.1996 -11.7486 0 
834 1 -9.06994 -11.6905 0 
836 1 -7.94138 -11.6318 0 
838 1 -6.81386 -11.5731 0 
840 1 -5.68745 -11.5147 0 
842 1 -4.56201 -11.4576 0 
844 1 -3.43741 -11.4023 0 
846 1 -2.3135 -11.3499 0 
848 1 -1.18983 -11.3009 0 
850 1 -0.0660545 -11.2555 0 
852 1 1.05799 -11.214 0 
855 1 2.76781 -12.1519 0 
854 1 2.18249 -11.176 0 
857 1 3.89264 -12.1184 0 
856 1 3.30761 -11.1413 0 
859 1 5.01795 -12.0876 0 
858 1 4.43324 -11.1096 0 
861 1 6.14383 -12.0593 0 
860 1 5.55945 -11.0805 0 
863 1 7.27015 -12.0333 0 
862 1 6.68624 -11.0539 0 
865 1 8.39678 -12.0093 0 
864 1 7.81352 -11.0294 0 
867 1 9.5239 -11.9873 0 
869 1 10.6513 -11.9671 0 
871 1 11.779 -11.9484 0 
873 1 12.9069 -11.9312 0 
875 1 14.035 -11.9151 0 
877 1 15.1634 -11.9004 0 
879 1 16.292 -11.8868 0 
881 1 17.4206 -11.8743 0 
883 1 18.5494 -11.8628 0 
885 1 19.6783 -11.8523 0 
887 1 20.8072 -11.8427 0 
889 1 21.9363 -11.8338 0 
891 1 23.0655 -11.8255 0 
893 1 24.1948 -11.8177 0 
895 2 25.3239 -11.8103 0 
897 2 26.4549 -11.8064 0 
899 2 27.586 -11.8028 0 
902 2 -27.2202 -10.5209 0 
904 2 -26.0925 -10.4842 0 
906 2 -24.9646 -10.4468 0 
908 1 -23.8353 -10.4066 0 
910 1 -22.7053 -10.3636 0 
912 1 -21.5748 -10.3196 0 
914 1 -20.4438 -10.2743 0 
916 1 -19.3123 -10.2276 0 
918 1 -18.1806 -10.1794 0 
920 1 -17.0486 -10.1295 0 
922 1 -15.9162 -10.078 0 
924 1 -14.7836 -10.0245 0 
925 1 -14.1872 -10.9701 0 
926 1 -13.651 -9.96917 0 
927 1 -13.055 -10.9149 0 
928 1 -12.5185 -9.91193 0 
929 1 -11.9231 -10.858 0 
930 1 -11.3864 -9.85271 0 
931 1 -10.7919 -10.7996 0 
933 1 -9.66118 -10.74 0 
935 1 -8.53156 -10.6795 0 
937 1 -7.40308 -10.6186 0 
939 1 -6.27581 -10.5576 0 
941 1 -5.1497 -10.4975 0 
943 1 -4.02466 -10.439 0 
945 1 -2.90033 -10.3832 0 
947 1 -1.7765 -10.3311 0 
949 1 -0.652675 -10.2833 0 
951 1 0.471528 -10.2396 0 
953 1 1.59626 -10.2001 0 
955 1 2.7216 -10.1641 0 
957 1 3.84762 -10.1314 0 
959 1 4.97425 -10.1016 0 
961 1 6.10159 -10.0744 0 
963 1 7.22945 -10.0494 0 
965 1 8.35778 -10.0265 0 
866 1 8.94118 -11.0069 0 
967 1 9.48641 -10.0054 0 
868 1 10.0691 -10.9863 0 
969 1 10.6154 -9.98607 0 
870 1 11.1974 -10.9673 0 
971 1 11.7446 -9.96833 0 
872 1 12.326 -10.9498 0 
973 1 12.874 -9.95186 0 
874 1 13.4546 -10.9336 0 
975 1 14.0034 -9.93677 0 
876 1 14.5835 -10.9187 0 
977 1 15.133 -9.92293 0 
878 1 15.7126 -10.9049 0 
979 1 16.2628 -9.91015 0 
880 1 16.8418 -10.8922 0 
981 1 17.3927 -9.89845 0 
882 1 17.9711 -10.8806 0 
983 1 18.5227 -9.88771 0 
884 1 19.1005 -10.87 0 
985 1 19.6528 -9.87797 0 
886 1 20.23 -10.8604 0 
987 1 20.7829 -9.86923 0 
888 1 21.3596 -10.8516 0 
890 1 22.4893 -10.8434 0 
989 1 21.913 -9.86122 0 
892 1 23.6191 -10.8358 0 
991 1 23.0433 -9.85385 0 
894 1 24.749 -10.8287 0 
993 1 24.1736 -9.84696 0 
896 2 25.8793 -10.8234 0 
995 2 25.3037 -9.84035 0 
898 2 27.0108 -10.8201 0 
997 2 26.4357 -9.83726 0 
900 2 28.1423 -10.817 0 
999 2 27.5677 -9.8344 0 
1001 2 -27.8125 -9.56805 0 
1003 2 -26.6854 -9.5318 0 
1005 2 -25.5581 -9.49477 0 
1007 2 -24.4305 -9.45693 0 
1009 1 -23.3009 -9.41471 0 
1011 1 -22.1709 -9.37141 0 
1013 1 -21.0404 -9.32684 0 
1015 1 -19.9096 -9.28093 0 
1017 1 -18.7783 -9.23334 0 
1019 1 -17.6466 -9.18405 0 
1021 1 -16.5144 -9.13302 0 
1023 1 -15.3819 -9.07997 0 
1025 1 -14.2492 -9.02479 0 
1027 1 -13.1163 -8.96753 0 
1029 1 -11.9835 -8.90791 0 
932 1 -10.2548 -9.79196 0 
1031 1 -10.8509 -8.84626 0 
934 1 -9.12392 -9.7297 0 
1033 1 -9.71892 -8.78265 0 
936 1 -7.99421 -9.66661 0 
1035 1 -8.58781 -8.71748 0 
938 1 -6.86583 -9.60298 0 
940 1 -5.73882 -9.53972 0 
942 1 -4.61316 -9.47767 0 
944 1 -3.48846 -9.41823 0 
946 1 -2.36438 -9.36244 0 
948 1 -1.24043 -9.31151 0 
950 1 -0.116208 -9.26549 0 
952 1 1.00874 -9.22415 0 
954 1 2.13444 -9.1868 0 
956 1 3.26094 -9.15312 0 
958 1 4.38815 -9.12253 0 
960 1 5.51611 -9.09478 0 
962 1 6.64467 -9.06931 0 
964 1 7.77366 -9.046 0 
966 1 8.90305 -9.02458 0 
968 1 10.0327 -9.00484 0 
970 1 11.1626 -8.98683 0 
972 1 12.2927 -8.97022 0 
974 1 13.423 -8.95485 0 
976 1 14.5533 -8.9408 0 
978 1 15.6838 -8.92798 0 
980 1 16.8143 -8.91625 0 
982 1 17.9449 -8.90544 0 
984 1 19.0755 -8.8956 0 
986 1 20.2062 -8.88675 0 
988 1 21.3369 -8.87884 0 
990 1 22.4678 -8.87171 0 
992 1 23.5986 -8.86508 0 
994 1 24.7295 -8.85872 0 
996 2 25.8608 -8.85435 0 
998 2 26.9933 -8.85174 0 
1000 2 28.1257 -8.84931 0 
1002 2 -27.2783 -8.57905 0 
1101 2 -27.8711 -7.62598 0 
1004 2 -26.1516 -8.54247 0 
1103 2 -26.7449 -7.58983 0 
1006 2 -25.0246 -8.50509 0 
1105 2 -25.6186 -7.5529 0 
1008 1 -23.8963 -8.46526 0 
1107 2 -24.492 -7.51516 0 
1010 1 -22.7673 -8.42289 0 
1012 1 -21.6376 -8.37919 0 
1014 1 -20.5073 -8.33404 0 
1016 1 -19.3767 -8.28729 0 
1018 1 -18.2456 -8.23884 0 
1020 1 -17.114 -8.18854 0 
1022 1 -15.9819 -8.1361 0 
1024 1 -14.8493 -8.08151 0 
1026 1 -13.7163 -8.02452 0 
1028 1 -12.5832 -7.96503 0 
1030 1 -11.4498 -7.90296 0 
1032 1 -10.3168 -7.83831 0 
1034 1 -9.18435 -7.77153 0 
1036 1 -8.05302 -7.70279 0 
1037 1 -7.45802 -8.65123 0 
1038 1 -6.92332 -7.63296 0 
1039 1 -6.32984 -8.58469 0 
1041 1 -5.20333 -8.51872 0 
1043 1 -4.07817 -8.45513 0 
1045 1 -2.95392 -8.3952 0 
1047 1 -1.82983 -8.34048 0 
1049 1 -0.705384 -8.29161 0 
1051 1 0.419791 -8.24816 0 
1053 1 1.54587 -8.20941 0 
1055 1 2.67292 -8.1747 0 
1057 1 3.80081 -8.14331 0 
1059 1 4.92956 -8.11505 0 
1061 1 6.05889 -8.08918 0 
1063 1 7.18873 -8.06539 0 
1065 1 8.31908 -8.04372 0 
1067 1 9.44959 -8.02361 0 
1069 1 10.5804 -8.00534 0 
1071 1 11.7113 -7.9885 0 
1073 1 12.8424 -7.97295 0 
1075 1 13.9734 -7.9587 0 
1077 1 15.1046 -7.94572 0 
1079 1 16.2359 -7.9339 0 
1081 1 17.3671 -7.92303 0 
1083 1 18.4984 -7.91314 0 
1085 1 19.6297 -7.90424 0 
1087 1 20.7609 -7.89636 0 
1089 1 21.8923 -7.88935 0 
1091 1 23.0236 -7.88291 0 
1093 1 24.1548 -7.87692 0 
1095 2 25.2861 -7.87134 0 
1097 2 26.419 -7.86899 0 
1099 2 27.5519 -7.8668 0 
1102 2 -27.3381 -6.63684 0 
1104 2 -26.2124 -6.60035 0 
1106 2 -25.0865 -6.56307 0 
1108 1 -23.9596 -6.52378 0 
1109 1 -23.3637 -7.47369 0 
1110 1 -22.8319 -6.4822 0 
1111 1 -22.2348 -7.43105 0 
1112 1 -21.7036 -6.43915 0 
1113 1 -21.1055 -7.3869 0 
1114 1 -20.5749 -6.39439 0 
1115 1 -19.9757 -7.34107 0 
1116 1 -19.4457 -6.34794 0 
1117 1 -18.8454 -7.29356 0 
1119 1 -17.7146 -7.24412 0 
1121 1 -16.5832 -7.1926 0 
1123 1 -15.4512 -7.13888 0 
1125 1 -14.3186 -7.08263 0 
1127 1 -13.1855 -7.02358 0 
1129 1 -12.0519 -6.96179 0 
1131 1 -10.9181 -6.8968 0 
1133 1 -9.78444 -6.82884 0 
1135 1 -8.65153 -6.75817 0 
1137 1 -7.51995 -6.68519 0 
1139 1 -6.39043 -6.61104 0 
1040 1 -5.79556 -7.56296 0 
1141 1 -5.26307 -6.53737 0 
1042 1 -4.66945 -7.49451 0 
1143 1 -4.13768 -6.46641 0 
1044 1 -3.5448 -7.42961 0 
1046 1 -2.42067 -7.37037 0 
1048 1 -1.29618 -7.31794 0 
1050 1 -0.170851 -7.2721 0 
1052 1 0.955668 -7.23177 0 
1054 1 2.08337 -7.19605 0 
1056 1 3.21211 -7.16398 0 
1058 1 4.3418 -7.13513 0 
1060 1 5.47214 -7.10895 0 
1062 1 6.60297 -7.08485 0 
1064 1 7.73434 -7.06289 0 
1066 1 8.86592 -7.04243 0 
1068 1 9.99767 -7.02385 0 
1070 1 11.1296 -7.00678 0 
1072 1 12.2615 -6.99106 0 
1074 1 13.3934 -6.97658 0 
1076 1 14.5254 -6.96348 0 
1078 1 15.6574 -6.9515 0 
1080 1 16.7893 -6.94058 0 
1082 1 17.9213 -6.93062 0 
1084 1 19.0533 -6.9217 0 
1086 1 20.1852 -6.91375 0 
1088 1 21.317 -6.90682 0 
1090 1 22.4488 -6.9005 0 
1092 1 23.5807 -6.89483 0 
1094 1 24.7127 -6.88967 0 
1096 2 25.8451 -6.88616 0 
1098 2 26.9784 -6.88422 0 
1100 2 28.1116 -6.88241 0 
1201 2 -27.9311 -5.68349 0 
1203 2 -26.806 -5.64742 0 