ITEM: TIMESTEP
2200
ITEM: NUMBER OF ATOMS
2850
ITEM: BOX BOUNDS ff ff pp
-42.092 42.092
-42.092 42.092
-0.280613 0.280613
ITEM: ATOMS id type xu yu zu 
1 2 -27.3398 -28.9988 0 
3 2 -26.2107 -28.9642 0 
5 2 -25.0816 -28.9291 0 
7 2 -23.9525 -28.8936 0 
9 2 -22.8235 -28.8577 0 
11 2 -21.6944 -28.8213 0 
13 2 -20.5655 -28.7844 0 
15 2 -19.4366 -28.7472 0 
17 2 -18.3079 -28.7095 0 
19 2 -17.1793 -28.6715 0 
21 2 -16.0508 -28.6331 0 
23 2 -14.9226 -28.5944 0 
25 2 -13.7947 -28.5554 0 
27 2 -12.667 -28.5163 0 
29 2 -11.5396 -28.477 0 
31 2 -10.4126 -28.4376 0 
33 2 -9.28592 -28.3982 0 
35 2 -8.15967 -28.3589 0 
37 2 -7.03386 -28.3198 0 
39 2 -5.90848 -28.281 0 
2 2 -26.7941 -28.0086 0 
4 2 -25.6649 -27.9736 0 
6 2 -24.5357 -27.9381 0 
8 2 -23.4065 -27.902 0 
10 2 -22.2773 -27.8656 0 
12 2 -21.1481 -27.8286 0 
14 2 -20.019 -27.7912 0 
16 2 -18.89 -27.7533 0 
18 2 -17.7611 -27.715 0 
20 2 -16.6324 -27.6763 0 
22 2 -15.5039 -27.6373 0 
24 2 -14.3755 -27.5979 0 
26 2 -13.2475 -27.5582 0 
28 2 -12.1197 -27.5183 0 
30 2 -10.9923 -27.4783 0 
32 2 -9.86522 -27.4382 0 
34 2 -8.73856 -27.3981 0 
36 2 -7.61233 -27.3581 0 
38 2 -6.48656 -27.3184 0 
40 2 -5.36126 -27.2789 0 
41 2 -4.78357 -28.2426 0 
42 2 -4.23645 -27.24 0 
43 2 -3.65912 -28.2046 0 
44 2 -3.11213 -27.2015 0 
45 2 -2.53513 -28.1673 0 
46 2 -1.98828 -27.1638 0 
47 2 -1.41159 -28.1307 0 
48 2 -0.8649 -27.1269 0 
49 2 -0.288464 -28.095 0 
51 2 0.834263 -28.0602 0 
53 2 1.95663 -28.0264 0 
55 2 3.07869 -27.9937 0 
57 2 4.20048 -27.9622 0 
59 2 5.32207 -27.9319 0 
61 2 6.4435 -27.9029 0 
63 2 7.56483 -27.8752 0 
65 2 8.68613 -27.8488 0 
67 2 9.80743 -27.8237 0 
69 2 10.9288 -27.8 0 
71 2 12.0503 -27.7775 0 
73 2 13.1719 -27.7563 0 
75 2 14.2937 -27.7363 0 
77 2 15.4157 -27.7174 0 
79 2 16.538 -27.6997 0 
81 2 17.6605 -27.683 0 
83 2 18.7832 -27.6673 0 
85 2 19.9063 -27.6526 0 
87 2 21.0296 -27.6388 0 
89 2 22.1532 -27.6258 0 
91 2 23.2771 -27.6136 0 
93 2 24.4012 -27.6022 0 
95 2 25.5256 -27.5914 0 
97 2 26.6503 -27.5812 0 
99 2 27.7752 -27.5717 0 
101 2 -27.378 -27.0533 0 
103 2 -26.2487 -27.0183 0 
102 2 -26.833 -26.0633 0 
105 2 -25.1194 -26.9828 0 
104 2 -25.7037 -26.0278 0 
107 2 -23.9901 -26.9468 0 
106 2 -24.5742 -25.9918 0 
109 2 -22.8607 -26.9102 0 
108 1 -23.4439 -25.9557 0 
111 2 -21.7314 -26.8732 0 
113 2 -20.6021 -26.8357 0 
115 2 -19.4729 -26.7977 0 
117 2 -18.3437 -26.7591 0 
119 2 -17.2147 -26.7202 0 
121 2 -16.0858 -26.6808 0 
123 2 -14.9572 -26.641 0 
125 2 -13.8287 -26.6009 0 
127 2 -12.7006 -26.5605 0 
129 2 -11.5727 -26.5198 0 
131 2 -10.4452 -26.479 0 
133 2 -9.31813 -26.4382 0 
135 2 -8.19146 -26.3973 0 
137 2 -7.06526 -26.3566 0 
139 2 -5.93954 -26.3162 0 
141 2 -4.81433 -26.2762 0 
143 2 -3.68963 -26.2366 0 
145 2 -2.56545 -26.1977 0 
147 2 -1.44177 -26.1596 0 
50 2 0.258046 -27.0909 0 
149 2 -0.318563 -26.1224 0 
52 2 1.38059 -27.056 0 
151 2 0.804196 -26.0862 0 
54 2 2.50279 -27.0222 0 
153 2 1.92656 -26.0512 0 
56 2 3.62468 -26.9896 0 
155 2 3.04857 -26.0174 0 
58 2 4.74633 -26.9582 0 
157 2 4.1703 -25.9849 0 
60 2 5.86779 -26.9282 0 
159 2 5.2918 -25.9538 0 
62 2 6.98913 -26.8996 0 
64 2 8.11041 -26.8723 0 
66 2 9.23169 -26.8465 0 
68 2 10.353 -26.822 0 
70 2 11.4745 -26.7989 0 
72 2 12.596 -26.7771 0 
74 2 13.7178 -26.7566 0 
76 2 14.8398 -26.7373 0 
78 2 15.962 -26.7192 0 
80 2 17.0845 -26.7023 0 
82 2 18.2073 -26.6863 0 
84 2 19.3304 -26.6714 0 
86 2 20.4538 -26.6575 0 
88 2 21.5774 -26.6444 0 
90 2 22.7014 -26.6321 0 
92 2 23.8256 -26.6206 0 
94 2 24.9501 -26.6098 0 
96 2 26.0749 -26.5996 0 
98 2 27.2 -26.5901 0 
100 2 28.3253 -26.5811 0 
201 2 -27.4179 -25.1085 0 
203 2 -26.2885 -25.0731 0 
205 2 -25.159 -25.0372 0 
207 2 -24.0295 -25.0007 0 
209 1 -22.899 -24.9632 0 
110 1 -22.3138 -25.9175 0 
211 1 -21.7688 -24.9238 0 
112 1 -21.1839 -25.8785 0 
213 1 -20.6384 -24.884 0 
114 1 -20.055 -25.8401 0 
215 1 -19.5085 -24.8452 0 
116 1 -18.9257 -25.8016 0 
217 1 -18.3782 -24.8061 0 
118 1 -17.7954 -25.7626 0 
120 1 -16.6658 -25.7223 0 
122 1 -15.5372 -25.6828 0 
124 1 -14.4085 -25.6421 0 
126 1 -13.2807 -25.6014 0 
128 1 -12.1528 -25.5595 0 
130 1 -11.0245 -25.5177 0 
132 1 -9.89755 -25.4768 0 
134 1 -8.77023 -25.4359 0 
136 1 -7.6433 -25.3923 0 
138 1 -6.51845 -25.3502 0 
140 1 -5.39279 -25.3105 0 
142 1 -4.26799 -25.2692 0 
144 1 -3.14461 -25.2292 0 
146 1 -2.02075 -25.1897 0 
148 1 -0.898148 -25.151 0 
150 1 0.224678 -25.1144 0 
152 1 1.34662 -25.0773 0 
154 1 2.46852 -25.0438 0 
156 1 3.59019 -25.0112 0 
158 1 4.71145 -24.9793 0 
160 1 5.83364 -24.9487 0 
161 2 6.41316 -25.9242 0 
162 1 6.95475 -24.9202 0 
163 2 7.53443 -25.896 0 
164 1 8.07584 -24.8934 0 
165 2 8.65568 -25.8693 0 
167 2 9.77697 -25.844 0 
166 1 9.19734 -24.8664 0 
169 2 10.8984 -25.8202 0 
168 1 10.3194 -24.8421 0 
171 2 12.0199 -25.7978 0 
170 1 11.4413 -24.8201 0 
173 2 13.1416 -25.7768 0 
175 2 14.2636 -25.7571 0 
177 2 15.3858 -25.7386 0 
179 2 16.5083 -25.7213 0 
181 2 17.6311 -25.7052 0 
183 2 18.7543 -25.6901 0 
185 2 19.8777 -25.6759 0 
187 2 21.0014 -25.6627 0 
189 2 22.1254 -25.6504 0 
191 2 23.2498 -25.6388 0 
193 2 24.3744 -25.628 0 
195 2 25.4993 -25.6179 0 
197 2 26.6245 -25.6084 0 
199 2 27.75 -25.5994 0 
202 2 -26.8739 -24.1187 0 
204 2 -25.7444 -24.0828 0 
206 2 -24.6148 -24.0464 0 
208 1 -23.4839 -24.0084 0 
210 1 -22.3536 -23.9696 0 
212 1 -21.2228 -23.9301 0 
214 1 -20.0921 -23.8896 0 
216 1 -18.9618 -23.8499 0 
219 1 -17.2483 -24.7657 0 
218 1 -17.8317 -23.8098 0 
221 1 -16.1181 -24.7249 0 
220 1 -16.7022 -23.7692 0 
222 1 -15.5731 -23.7264 0 
223 1 -14.9895 -24.6837 0 
224 1 -14.4439 -23.6838 0 
225 1 -13.861 -24.6417 0 
227 1 -12.7343 -24.5992 0 
229 1 -11.606 -24.5576 0 
231 1 -10.4773 -24.5147 0 
233 1 -9.35008 -24.4745 0 
235 1 -8.22365 -24.4319 0 
237 1 -7.09822 -24.3852 0 
239 1 -5.97343 -24.3452 0 
241 1 -4.84977 -24.3029 0 
243 1 -3.72579 -24.2599 0 
245 1 -2.60202 -24.2213 0 
247 1 -1.47884 -24.1798 0 
249 1 -0.355941 -24.1421 0 
251 1 0.766031 -24.1055 0 
253 1 1.88836 -24.0706 0 
255 1 3.00999 -24.0374 0 
257 1 4.13126 -24.004 0 
259 1 5.25319 -23.9739 0 
261 1 6.37459 -23.9443 0 
263 1 7.49675 -23.9169 0 
265 1 8.61909 -23.8898 0 
267 1 9.74141 -23.8648 0 
269 1 10.8629 -23.8414 0 
271 1 11.9847 -23.82 0 
172 1 12.5632 -24.7985 0 
273 1 13.1088 -23.8001 0 
174 1 13.6858 -24.7788 0 
275 1 14.2319 -23.7811 0 
176 1 14.8085 -24.7589 0 
277 1 15.3554 -23.7628 0 
178 1 15.9315 -24.7423 0 
279 1 16.4787 -23.7462 0 
180 1 17.0552 -24.725 0 
281 1 17.6026 -23.7298 0 
182 1 18.1786 -24.7101 0 
283 1 18.726 -23.7149 0 
184 1 19.3018 -24.6948 0 
285 1 19.8502 -23.7006 0 
186 1 20.4255 -24.6824 0 
287 1 20.9746 -23.6889 0 
188 1 21.5502 -24.6699 0 
289 1 22.0994 -23.6774 0 
190 1 22.6752 -24.6576 0 
291 1 23.2241 -23.6651 0 
192 1 23.7989 -24.6467 0 
293 1 24.3484 -23.6554 0 
194 1 24.9232 -24.6369 0 
295 2 25.4729 -23.6443 0 
196 2 26.0488 -24.6264 0 
198 2 27.1745 -24.6176 0 
200 2 28.3003 -24.6093 0 
301 2 -27.4598 -23.1644 0 
303 2 -26.3303 -23.1287 0 
305 2 -25.2007 -23.0924 0 
307 2 -24.071 -23.0555 0 
309 1 -22.9388 -23.0153 0 
311 1 -21.8079 -22.9756 0 
313 1 -20.6777 -22.9349 0 
315 1 -19.5463 -22.8948 0 
317 1 -18.4156 -22.8539 0 
319 1 -17.2873 -22.813 0 
321 1 -16.1582 -22.7713 0 
323 1 -15.0281 -22.7275 0 
226 1 -13.3149 -23.6394 0 
325 1 -13.8986 -22.6827 0 
327 1 -12.7687 -22.6395 0 
228 1 -12.1865 -23.5979 0 
329 1 -11.6409 -22.5967 0 
230 1 -11.0587 -23.5551 0 
331 1 -10.5132 -22.5531 0 
232 1 -9.93057 -23.5123 0 
333 1 -9.38545 -22.508 0 
234 1 -8.80448 -23.4702 0 
236 1 -7.67931 -23.4242 0 
238 1 -6.55275 -23.3802 0 
240 1 -5.4289 -23.3368 0 
242 1 -4.30548 -23.2936 0 
244 1 -3.18112 -23.2523 0 
246 1 -2.05927 -23.2104 0 
248 1 -0.935865 -23.1708 0 
250 1 0.186841 -23.1334 0 
252 1 1.30807 -23.0978 0 
254 1 2.43001 -23.0633 0 
256 1 3.55169 -23.03 0 
258 1 4.67426 -22.9987 0 
260 1 5.79612 -22.9678 0 
262 1 6.91891 -22.9407 0 
264 1 8.04109 -22.9134 0 
266 1 9.16347 -22.8873 0 
268 1 10.2859 -22.8629 0 
270 1 11.4085 -22.8408 0 
272 1 12.5318 -22.8218 0 
274 1 13.6562 -22.8018 0 
276 1 14.7792 -22.7839 0 
278 1 15.9017 -22.7661 0 
280 1 17.026 -22.7501 0 
282 1 18.1505 -22.7347 0 
284 1 19.2742 -22.7205 0 
286 1 20.3989 -22.7077 0 
288 1 21.5237 -22.696 0 
290 1 22.6485 -22.6845 0 
292 1 23.773 -22.6735 0 
294 1 24.8973 -22.6634 0 
297 2 26.5987 -23.6355 0 
296 2 26.0228 -22.6533 0 
299 2 27.7248 -23.6273 0 
298 2 27.149 -22.6452 0 
300 2 28.2755 -22.6376 0 
302 2 -26.9167 -22.1747 0 
304 2 -25.7871 -22.1385 0 
306 2 -24.6574 -22.1018 0 
308 1 -23.5261 -22.0627 0 
310 1 -22.3949 -22.0216 0 
312 1 -21.2632 -21.9803 0 
314 1 -20.132 -21.9401 0 
316 1 -19.0014 -21.8989 0 
318 1 -17.8715 -21.8568 0 
320 1 -16.7424 -21.8152 0 
322 1 -15.6129 -21.7718 0 
324 1 -14.4827 -21.7275 0 
326 1 -13.3523 -21.6832 0 
328 1 -12.2228 -21.6379 0 
330 1 -11.096 -21.5938 0 
332 1 -9.96974 -21.5494 0 
334 1 -8.84276 -21.5018 0 
335 1 -8.25993 -22.4625 0 
336 1 -7.71623 -21.4559 0 
337 1 -7.13397 -22.4182 0 
338 1 -6.59157 -21.4104 0 
339 1 -6.00852 -22.3725 0 
340 1 -5.46659 -21.3637 0 
341 1 -4.88439 -22.3279 0 
343 1 -3.76068 -22.2861 0 
345 1 -2.63868 -22.2415 0 
347 1 -1.51646 -22.2018 0 
349 1 -0.394068 -22.1625 0 
351 1 0.72804 -22.1244 0 
353 1 1.85011 -22.0901 0 
355 1 2.97209 -22.0553 0 
357 1 4.09397 -22.0236 0 
359 1 5.21593 -21.9928 0 
361 1 6.33899 -21.9652 0 
363 1 7.46153 -21.9366 0 
365 1 8.58386 -21.9109 0 
367 1 9.70649 -21.8856 0 
369 1 10.8299 -21.8629 0 
371 1 11.9538 -21.8419 0 
373 1 13.0773 -21.823 0 
375 1 14.2012 -21.8036 0 
377 1 15.3248 -21.7852 0 
379 1 16.4478 -21.7698 0 
381 1 17.5721 -21.7541 0 
383 1 18.6973 -21.7403 0 
385 1 19.8226 -21.7272 0 
387 1 20.9471 -21.7144 0 
389 1 22.0721 -21.7036 0 
391 1 23.1971 -21.6919 0 
393 1 24.3222 -21.6815 0 
395 2 25.4466 -21.6709 0 
397 2 26.573 -21.6629 0 
399 2 27.6998 -21.6554 0 
401 2 -27.5037 -21.2208 0 
403 2 -26.3741 -21.1849 0 
402 2 -26.9617 -20.2313 0 
405 2 -25.2445 -21.1483 0 
404 2 -25.8321 -20.1949 0 
407 2 -24.1147 -21.111 0 
409 1 -22.9821 -21.069 0 
411 1 -21.85 -21.0271 0 
413 1 -20.7183 -20.9855 0 
415 1 -19.5871 -20.9446 0 
417 1 -18.4559 -20.9023 0 
419 1 -17.3259 -20.8592 0 
421 1 -16.1963 -20.8158 0 
423 1 -15.0658 -20.7718 0 
425 1 -13.9362 -20.7269 0 
427 1 -12.8078 -20.6816 0 
429 1 -11.6787 -20.6346 0 
431 1 -10.5512 -20.589 0 
433 1 -9.42501 -20.5432 0 
435 1 -8.29778 -20.4952 0 
437 1 -7.17227 -20.4469 0 
439 1 -6.04817 -20.4006 0 
342 1 -4.3417 -21.3197 0 
441 1 -4.92334 -20.3547 0 
344 1 -3.21939 -21.2747 0 
443 1 -3.8002 -20.3074 0 
346 1 -2.09638 -21.2317 0 
445 1 -2.67748 -20.2637 0 
348 1 -0.974913 -21.1914 0 
447 1 -1.55511 -20.2204 0 
350 1 0.146665 -21.1528 0 
352 1 1.26967 -21.1166 0 
354 1 2.39143 -21.0813 0 
356 1 3.51313 -21.0477 0 
358 1 4.63537 -21.0171 0 
360 1 5.75853 -20.9895 0 
362 1 6.88159 -20.961 0 
364 1 8.00476 -20.9337 0 
366 1 9.12646 -20.9079 0 
368 1 10.249 -20.8845 0 
370 1 11.3722 -20.8636 0 
372 1 12.4963 -20.8434 0 
374 1 13.621 -20.8235 0 
376 1 14.7455 -20.8056 0 
378 1 15.87 -20.7879 0 
380 1 16.9937 -20.7734 0 
382 1 18.1184 -20.759 0 
384 1 19.2435 -20.7469 0 
386 1 20.3694 -20.7337 0 
388 1 21.4956 -20.7219 0 
390 1 22.6207 -20.7109 0 
392 1 23.7468 -20.7001 0 
394 1 24.8717 -20.6888 0 
396 2 25.9969 -20.6804 0 
398 2 27.1238 -20.673 0 
400 2 28.251 -20.6661 0 
501 2 -27.5497 -19.2779 0 
503 2 -26.4202 -19.2417 0 
505 2 -25.2906 -19.2049 0 
406 2 -24.7023 -20.1579 0 
507 2 -24.1608 -19.1673 0 
408 1 -23.5702 -20.1174 0 
509 1 -23.0276 -19.1234 0 
410 1 -22.4386 -20.0746 0 
511 1 -21.8949 -19.0808 0 
412 1 -21.3058 -20.0324 0 
513 1 -20.7622 -19.038 0 
414 1 -20.1734 -19.991 0 
416 1 -19.042 -19.9487 0 
418 1 -17.9109 -19.9046 0 
420 1 -16.7815 -19.8607 0 
422 1 -15.6518 -19.8171 0 
424 1 -14.521 -19.7715 0 
426 1 -13.392 -19.7244 0 
428 1 -12.2636 -19.6793 0 
430 1 -11.1342 -19.6304 0 
432 1 -10.0065 -19.5828 0 
434 1 -8.88038 -19.5363 0 
436 1 -7.75462 -19.4858 0 
438 1 -6.62944 -19.4374 0 
440 1 -5.50524 -19.3905 0 
442 1 -4.38213 -19.342 0 
444 1 -3.2584 -19.2964 0 
446 1 -2.13682 -19.2511 0 
448 1 -1.01561 -19.2092 0 
449 1 -0.433221 -20.18 0 
450 1 0.106729 -19.1707 0 
451 1 0.688854 -20.1433 0 
452 1 1.22873 -19.1333 0 
453 1 1.81062 -20.1069 0 
454 1 2.35125 -19.0977 0 
455 1 2.93281 -20.0727 0 
456 1 3.474 -19.0647 0 
457 1 4.05601 -20.0407 0 
459 1 5.17968 -20.0118 0 
461 1 6.30233 -19.9837 0 
463 1 7.425 -19.9564 0 
465 1 8.54743 -19.9296 0 
467 1 9.67108 -19.9056 0 
469 1 10.7947 -19.8835 0 
471 1 11.918 -19.8632 0 
473 1 13.0417 -19.844 0 
475 1 14.1665 -19.8251 0 
477 1 15.2909 -19.8083 0 
479 1 16.4158 -19.792 0 
481 1 17.5403 -19.7781 0 
483 1 18.6659 -19.7651 0 
485 1 19.7915 -19.7527 0 
487 1 20.9174 -19.7412 0 
489 1 22.0433 -19.7288 0 
491 1 23.1688 -19.7188 0 
493 1 24.2944 -19.7072 0 
495 2 25.4205 -19.6978 0 
497 2 26.5477 -19.6905 0 
499 2 27.6751 -19.6838 0 
502 2 -27.0088 -18.2886 0 
504 2 -25.8793 -18.252 0 
506 2 -24.7497 -18.2147 0 
508 1 -23.6176 -18.1736 0 
510 1 -22.4848 -18.1297 0 
512 1 -21.3528 -18.0863 0 
514 1 -20.2211 -18.0432 0 
515 1 -19.6305 -18.9955 0 
516 1 -19.0895 -17.9996 0 
517 1 -18.4988 -18.9518 0 
518 1 -17.9578 -17.9543 0 
519 1 -17.3679 -18.9061 0 
520 1 -16.8252 -17.9082 0 
521 1 -16.2384 -18.8623 0 
523 1 -15.1081 -18.8184 0 
525 1 -13.9777 -18.7696 0 
527 1 -12.8476 -18.7226 0 
529 1 -11.7201 -18.6755 0 
531 1 -10.5912 -18.6252 0 
533 1 -9.4634 -18.5769 0 
535 1 -8.33894 -18.5274 0 
537 1 -7.21311 -18.4772 0 
539 1 -6.08757 -18.4275 0 
541 1 -4.96434 -18.3773 0 
543 1 -3.84106 -18.3307 0 
545 1 -2.71921 -18.2829 0 
547 1 -1.5974 -18.2387 0 
549 1 -0.475935 -18.1984 0 
551 1 0.645669 -18.1606 0 
553 1 1.76774 -18.1236 0 
555 1 2.89049 -18.0893 0 
557 1 4.01404 -18.0573 0 
458 1 4.59675 -19.0344 0 
559 1 5.13741 -18.0285 0 
460 1 5.71964 -19.0059 0 
561 1 6.26117 -18.0018 0 
462 1 6.84299 -18.979 0 
563 1 7.38412 -17.9743 0 
464 1 7.96576 -18.9516 0 
565 1 8.50807 -17.9497 0 
466 1 9.08978 -18.9276 0 
567 1 9.63141 -17.9245 0 
468 1 10.214 -18.9039 0 
569 1 10.7557 -17.9026 0 
470 1 11.3379 -18.8825 0 
472 1 12.462 -18.8623 0 
474 1 13.5866 -18.8451 0 
476 1 14.7111 -18.8278 0 
478 1 15.8358 -18.8116 0 
480 1 16.9614 -18.7969 0 
482 1 18.087 -18.784 0 
484 1 19.2129 -18.7717 0 
486 1 20.3398 -18.7596 0 
488 1 21.4651 -18.7473 0 
490 1 22.5912 -18.7362 0 
492 1 23.7175 -18.7258 0 
494 1 24.8451 -18.7164 0 
496 2 25.9714 -18.7078 0 
498 2 27.0991 -18.7012 0 
500 2 28.2271 -18.6951 0 
601 2 -27.5979 -17.3354 0 
603 2 -26.4686 -17.2992 0 
605 2 -25.3391 -17.2621 0 
607 2 -24.2094 -17.2244 0 
609 1 -23.0766 -17.1799 0 
611 1 -21.9441 -17.1353 0 
613 1 -20.8116 -17.0918 0 
615 1 -19.6799 -17.0483 0 
617 1 -18.5488 -17.0032 0 
619 1 -17.4164 -16.9575 0 
522 1 -15.6942 -17.8638 0 
621 1 -16.2836 -16.9103 0 
524 1 -14.5653 -17.8168 0 
623 1 -15.1532 -16.8627 0 
526 1 -13.4345 -17.7688 0 
625 1 -14.0229 -16.8162 0 
528 1 -12.3051 -17.7193 0 
627 1 -12.8925 -16.7657 0 
530 1 -11.1781 -17.6698 0 
532 1 -10.0489 -17.6202 0 
534 1 -8.92184 -17.5678 0 
536 1 -7.79643 -17.5178 0 
538 1 -6.67073 -17.4668 0 
540 1 -5.54673 -17.4141 0 
542 1 -4.42309 -17.3649 0 
544 1 -3.30122 -17.3159 0 
546 1 -2.17834 -17.269 0 
548 1 -1.05661 -17.226 0 
550 1 0.0647077 -17.1863 0 
552 1 1.18624 -17.149 0 
554 1 2.30861 -17.1138 0 
556 1 3.43167 -17.0816 0 
558 1 4.55541 -17.0511 0 
560 1 5.679 -17.0234 0 
562 1 6.80201 -16.9958 0 
564 1 7.92564 -16.971 0 
566 1 9.04911 -16.9458 0 
568 1 10.1749 -16.9229 0 
571 1 11.881 -17.882 0 
570 1 11.3003 -16.9022 0 
573 1 13.007 -17.8631 0 
572 1 12.4264 -16.8825 0 
575 1 14.1318 -17.8465 0 
574 1 13.5517 -16.8646 0 
577 1 15.2564 -17.8301 0 
576 1 14.6771 -16.8482 0 
579 1 16.3823 -17.8155 0 
578 1 15.8032 -16.8339 0 
581 1 17.5088 -17.8029 0 
580 1 16.9299 -16.821 0 
583 1 18.6351 -17.7899 0 
582 1 18.0568 -16.8085 0 
585 1 19.7614 -17.7787 0 
584 1 19.184 -16.7962 0 
587 1 20.8877 -17.7653 0 
586 1 20.3099 -16.784 0 
589 1 22.0142 -17.7543 0 
588 1 21.4368 -16.7725 0 
591 1 23.1407 -17.7442 0 
590 1 22.5643 -16.7626 0 
593 1 24.2675 -17.7353 0 
592 1 23.691 -16.7533 0 
595 2 25.3948 -17.725 0 
594 1 24.8182 -16.744 0 
596 2 25.9465 -16.7357 0 
597 2 26.5229 -17.7186 0 
598 2 27.0751 -16.7299 0 
599 2 27.6512 -17.7126 0 
600 2 28.2039 -16.7246 0 
602 2 -27.0583 -16.3463 0 
604 2 -25.929 -16.3096 0 
606 2 -24.7995 -16.2721 0 
608 1 -23.6678 -16.2311 0 
610 1 -22.5359 -16.1861 0 
612 1 -21.4033 -16.1413 0 
614 1 -20.2701 -16.098 0 
616 1 -19.1391 -16.0524 0 
618 1 -18.0079 -16.0062 0 
620 1 -16.8757 -15.9599 0 
622 1 -15.7436 -15.9107 0 
624 1 -14.6118 -15.8626 0 
626 1 -13.4817 -15.8131 0 
628 1 -12.3517 -15.7601 0 
629 1 -11.7638 -16.7137 0 
630 1 -11.2217 -15.7086 0 
631 1 -10.6355 -16.6641 0 
632 1 -10.0949 -15.654 0 
633 1 -9.50911 -16.6107 0 
634 1 -8.96834 -15.6011 0 
635 1 -8.38207 -16.5581 0 
637 1 -7.25586 -16.5067 0 
639 1 -6.13145 -16.4527 0 
641 1 -5.0072 -16.4009 0 
643 1 -3.88476 -16.3489 0 
645 1 -2.76199 -16.3013 0 
647 1 -1.63875 -16.2555 0 
649 1 -0.516938 -16.213 0 
651 1 0.605054 -16.1747 0 
653 1 1.72694 -16.1383 0 
655 1 2.84895 -16.1054 0 
657 1 3.97159 -16.074 0 
659 1 5.09459 -16.0448 0 
661 1 6.21793 -16.017 0 
663 1 7.34195 -15.9911 0 
665 1 8.46634 -15.966 0 
667 1 9.59146 -15.9439 0 
669 1 10.7167 -15.9217 0 
671 1 11.8426 -15.9024 0 
673 1 12.9694 -15.8833 0 
675 1 14.0963 -15.8678 0 
677 1 15.2233 -15.8522 0 
679 1 16.3497 -15.8386 0 
681 1 17.4763 -15.8261 0 
683 1 18.6037 -15.8146 0 
685 1 19.731 -15.8024 0 
687 1 20.8582 -15.7905 0 
689 1 21.9858 -15.7808 0 
691 1 23.1137 -15.7716 0 
693 1 24.242 -15.7629 0 
695 2 25.3699 -15.7527 0 
697 2 26.4989 -15.7471 0 
699 2 27.6281 -15.742 0 
701 2 -27.6483 -15.3934 0 
703 2 -26.5193 -15.357 0 
705 2 -25.3901 -15.3199 0 
707 2 -24.2607 -15.282 0 
709 1 -23.1282 -15.2373 0 
711 1 -21.9959 -15.192 0 
713 1 -20.8632 -15.1483 0 
715 1 -19.7316 -15.1022 0 
717 1 -18.5991 -15.0557 0 
719 1 -17.4658 -15.0093 0 
721 1 -16.3342 -14.9606 0 
723 1 -15.2024 -14.9113 0 
725 1 -14.0719 -14.8605 0 
727 1 -12.9421 -14.8083 0 
729 1 -11.8117 -14.7559 0 
731 1 -10.683 -14.7002 0 
733 1 -9.55471 -14.6453 0 
636 1 -7.84159 -15.5479 0 
735 1 -8.42852 -14.5913 0 
638 1 -6.71708 -15.4921 0 
737 1 -7.30401 -14.5339 0 
640 1 -5.59267 -15.4386 0 
739 1 -6.17864 -14.4779 0 
642 1 -4.46936 -15.3843 0 
644 1 -3.34583 -15.334 0 
646 1 -2.22299 -15.2866 0 
648 1 -1.10113 -15.241 0 
650 1 0.0216983 -15.2013 0 
652 1 1.14381 -15.1633 0 
654 1 2.26607 -15.1287 0 
656 1 3.38835 -15.097 0 
658 1 4.5123 -15.0666 0 
660 1 5.63639 -15.0378 0 
662 1 6.75968 -15.0109 0 
664 1 7.88338 -14.9868 0 
666 1 9.00855 -14.9634 0 
668 1 10.1345 -14.9419 0 
670 1 11.262 -14.9222 0 
672 1 12.3891 -14.9031 0 
674 1 13.5161 -14.8855 0 
676 1 14.6425 -14.8708 0 
678 1 15.7699 -14.8572 0 
680 1 16.8978 -14.8439 0 
682 1 18.0255 -14.833 0 
684 1 19.1531 -14.821 0 
686 1 20.281 -14.8087 0 
688 1 21.4095 -14.7982 0 
690 1 22.5375 -14.7891 0 
692 1 23.6654 -14.7815 0 
694 1 24.7935 -14.7718 0 
696 2 25.9226 -14.7642 0 
698 2 27.0521 -14.7592 0 
700 2 28.1818 -14.7547 0 
702 2 -27.11 -14.4044 0 
801 2 -27.7009 -13.4516 0 
704 2 -25.9811 -14.3676 0 
803 2 -26.5724 -13.4152 0 
706 2 -24.852 -14.3301 0 
805 2 -25.4437 -13.3781 0 
708 1 -23.7205 -14.2883 0 
807 2 -24.3146 -13.3401 0 
710 1 -22.5886 -14.2437 0 
809 1 -23.1816 -13.295 0 
712 1 -21.4557 -14.1983 0 
714 1 -20.3242 -14.1525 0 
716 1 -19.1915 -14.1064 0 
718 1 -18.0581 -14.06 0 
720 1 -16.9256 -14.0111 0 
722 1 -15.7933 -13.9615 0 
724 1 -14.6622 -13.9099 0 
726 1 -13.5317 -13.8572 0 
728 1 -12.4018 -13.8042 0 
730 1 -11.2739 -13.7478 0 
732 1 -10.1448 -13.6927 0 
734 1 -9.01633 -13.6354 0 
736 1 -7.89087 -13.5764 0 
738 1 -6.76483 -13.5191 0 
740 1 -5.64049 -13.4603 0 
741 1 -5.05441 -14.4217 0 
742 1 -4.51611 -13.4057 0 
743 1 -3.92991 -14.369 0 
744 1 -3.39356 -13.3515 0 
745 1 -2.8074 -14.3184 0 
746 1 -2.27154 -13.3013 0 
747 1 -1.68587 -14.2706 0 
749 1 -0.562277 -14.2277 0 
751 1 0.560314 -14.1878 0 
753 1 1.68382 -14.1525 0 
755 1 2.80633 -14.1192 0 
757 1 3.92837 -14.0885 0 
759 1 5.05096 -14.0594 0 
761 1 6.17571 -14.0318 0 
763 1 7.30104 -14.0059 0 
765 1 8.4265 -13.9836 0 
767 1 9.55228 -13.9614 0 
769 1 10.6781 -13.941 0 
771 1 11.8046 -13.9217 0 
773 1 12.9322 -13.9038 0 
775 1 14.0602 -13.8883 0 
777 1 15.1888 -13.8743 0 
779 1 16.3169 -13.8626 0 
781 1 17.446 -13.8506 0 
783 1 18.5743 -13.8397 0 
785 1 19.7032 -13.8271 0 
787 1 20.8324 -13.8158 0 
789 1 21.9613 -13.8062 0 
791 1 23.09 -13.7984 0 
793 1 24.2177 -13.79 0 
795 2 25.3462 -13.7811 0 
797 2 26.4761 -13.7764 0 
799 2 27.6062 -13.772 0 
802 2 -27.164 -12.4626 0 
804 2 -26.0357 -12.4259 0 
806 2 -24.9071 -12.3884 0 
808 1 -23.7758 -12.3467 0 
810 1 -22.644 -12.3018 0 
811 1 -22.0492 -13.25 0 
812 1 -21.5115 -12.257 0 
813 1 -20.9166 -13.2038 0 
814 1 -20.3791 -12.2099 0 
815 1 -19.7842 -13.1574 0 
816 1 -19.2463 -12.1625 0 
817 1 -18.6516 -13.1111 0 
818 1 -18.1137 -12.1145 0 
819 1 -17.5193 -13.0627 0 
821 1 -16.3862 -13.0126 0 
823 1 -15.2543 -12.9601 0 
825 1 -14.1235 -12.9073 0 
827 1 -12.9921 -12.8537 0 
829 1 -11.8626 -12.7959 0 
831 1 -10.7332 -12.7401 0 
833 1 -9.60455 -12.6822 0 
835 1 -8.47761 -12.62 0 
837 1 -7.35118 -12.5617 0 
839 1 -6.22605 -12.5009 0 
841 1 -5.10072 -12.4432 0 
843 1 -3.97786 -12.3862 0 
845 1 -2.85556 -12.3322 0 
748 1 -1.14784 -13.2569 0 
847 1 -1.73263 -12.2854 0 
849 1 -0.609814 -12.2399 0 
750 1 -0.0243089 -13.2127 0 
851 1 0.514056 -12.2007 0 
752 1 1.09928 -13.1763 0 
853 1 1.63651 -12.1632 0 
754 1 2.22157 -13.1417 0 
756 1 3.34468 -13.1097 0 
758 1 4.46831 -13.0796 0 
760 1 5.59275 -13.0533 0 
762 1 6.71789 -13.0264 0 
764 1 7.84386 -13.002 0 
766 1 8.96886 -12.9799 0 
768 1 10.0953 -12.9593 0 
770 1 11.2223 -12.9395 0 
772 1 12.3501 -12.922 0 
774 1 13.4784 -12.9056 0 
776 1 14.607 -12.8918 0 
778 1 15.7362 -12.878 0 
780 1 16.8649 -12.8684 0 
782 1 17.994 -12.8562 0 
784 1 19.1229 -12.8454 0 
786 1 20.2529 -12.8339 0 
788 1 21.3825 -12.8238 0 
790 1 22.5122 -12.8157 0 
792 1 23.6415 -12.8075 0 
794 1 24.7704 -12.7992 0 
796 2 25.9 -12.7934 0 
798 2 27.0306 -12.7893 0 
800 2 28.1612 -12.7854 0 
901 2 -27.7557 -11.5099 0 
903 2 -26.6279 -11.4735 0 
905 2 -25.4997 -11.4364 0 
907 2 -24.3713 -11.3985 0 
909 1 -23.2392 -11.3535 0 
911 1 -22.107 -11.3089 0 
913 1 -20.9749 -11.2633 0 
915 1 -19.8424 -11.2153 0 
917 1 -18.7091 -11.1669 0 
820 1 -16.9817 -12.0646 0 
919 1 -17.5775 -11.1162 0 
822 1 -15.8489 -12.0118 0 
921 1 -16.4462 -11.0649 0 
824 1 -14.7166 -11.9574 0 
923 1 -15.3132 -11.0113 0 
826 1 -13.5851 -11.9045 0 
828 1 -12.4543 -11.8476 0 
830 1 -11.3229 -11.7893 0 
832 1 -10.1938 -11.7305 0 
834 1 -9.06716 -11.6674 0 
836 1 -7.9387 -11.606 0 
838 1 -6.81318 -11.5446 0 
840 1 -5.68786 -11.4837 0 
842 1 -4.56365 -11.4228 0 
844 1 -3.44101 -11.3653 0 
846 1 -2.31747 -11.3147 0 
848 1 -1.19518 -11.267 0 
850 1 -0.0715375 -11.2253 0 
852 1 1.0505 -11.186 0 
855 1 2.75991 -12.1304 0 
854 1 2.17435 -11.1516 0 
857 1 3.88437 -12.1002 0 
856 1 3.29941 -11.1201 0 
859 1 5.00954 -12.0721 0 
858 1 4.4242 -11.0914 0 
861 1 6.13446 -12.046 0 
860 1 5.54966 -11.0642 0 
863 1 7.26043 -12.0208 0 
862 1 6.67608 -11.0394 0 
865 1 8.38669 -11.9971 0 
864 1 7.80354 -11.0156 0 
867 1 9.51406 -11.9774 0 
869 1 10.642 -11.958 0 
871 1 11.7709 -11.9402 0 
873 1 12.899 -11.9227 0 
875 1 14.0276 -11.9079 0 
877 1 15.1569 -11.895 0 
879 1 16.2868 -11.8833 0 
881 1 17.4156 -11.8735 0 
883 1 18.5454 -11.8619 0 
885 1 19.6747 -11.8519 0 
887 1 20.8047 -11.8414 0 
889 1 21.935 -11.8325 0 
891 1 23.0646 -11.825 0 
893 1 24.194 -11.8172 0 
895 2 25.3239 -11.8103 0 
897 2 26.4549 -11.8064 0 
899 2 27.586 -11.8028 0 
902 2 -27.2202 -10.5209 0 
904 2 -26.0925 -10.4842 0 
906 2 -24.9646 -10.4468 0 
908 1 -23.8342 -10.4052 0 
910 1 -22.7028 -10.3604 0 
912 1 -21.5707 -10.3157 0 
914 1 -20.4389 -10.2686 0 
916 1 -19.3064 -10.2206 0 
918 1 -18.1745 -10.1701 0 
920 1 -17.043 -10.1186 0 
922 1 -15.9106 -10.0664 0 
924 1 -14.7784 -10.0118 0 
925 1 -14.1795 -10.9561 0 
926 1 -13.646 -9.9541 0 
927 1 -13.048 -10.9 0 
928 1 -12.5134 -9.89583 0 
929 1 -11.9169 -10.842 0 
930 1 -11.3819 -9.83432 0 
931 1 -10.7861 -10.7808 0 
933 1 -9.65841 -10.7168 0 
935 1 -8.52948 -10.6546 0 
937 1 -7.40213 -10.5897 0 
939 1 -6.27675 -10.5267 0 
941 1 -5.15215 -10.4628 0 
943 1 -4.02874 -10.4006 0 
945 1 -2.90424 -10.3465 0 
947 1 -1.78186 -10.2945 0 
949 1 -0.658304 -10.2518 0 
951 1 0.465006 -10.2094 0 
953 1 1.58916 -10.173 0 
955 1 2.71298 -10.1406 0 
957 1 3.83882 -10.111 0 
959 1 4.96542 -10.0831 0 
961 1 6.09186 -10.057 0 
963 1 7.21872 -10.0332 0 
965 1 8.34567 -10.0109 0 
866 1 8.93123 -10.9943 0 
967 1 9.47351 -9.99078 0 
868 1 10.0579 -10.9747 0 
969 1 10.6029 -9.97335 0 
870 1 11.1859 -10.9573 0 
971 1 11.7327 -9.95686 0 
872 1 12.315 -10.9404 0 
973 1 12.8626 -9.94231 0 
874 1 13.4447 -10.925 0 
975 1 13.9927 -9.92769 0 
876 1 14.5743 -10.9118 0 
977 1 15.1233 -9.91677 0 
878 1 15.7054 -10.8999 0 
979 1 16.255 -9.90574 0 
880 1 16.8362 -10.889 0 
981 1 17.3858 -9.89526 0 
882 1 17.9659 -10.8794 0 
983 1 18.5163 -9.88583 0 
884 1 19.096 -10.8688 0 
985 1 19.6468 -9.87589 0 
886 1 20.226 -10.859 0 
987 1 20.7783 -9.86757 0 
888 1 21.3568 -10.8497 0 
890 1 22.487 -10.8414 0 
989 1 21.91 -9.8581 0 
892 1 23.617 -10.8348 0 
991 1 23.041 -9.85161 0 
894 1 24.7472 -10.8281 0 
993 1 24.1717 -9.84451 0 
896 2 25.8793 -10.8234 0 
995 2 25.3037 -9.84035 0 
898 2 27.0108 -10.8201 0 
997 2 26.4357 -9.83726 0 
900 2 28.1423 -10.817 0 
999 2 27.5677 -9.8344 0 
1001 2 -27.8125 -9.56805 0 
1003 2 -26.6854 -9.5318 0 
1005 2 -25.5581 -9.49477 0 
1007 2 -24.4305 -9.45693 0 
1009 1 -23.2991 -9.41241 0 
1011 1 -22.1677 -9.36847 0 
1013 1 -21.0365 -9.32199 0 
1015 1 -19.9045 -9.27419 0 
1017 1 -18.7731 -9.2254 0 
1019 1 -17.6414 -9.17397 0 
1021 1 -16.5093 -9.12246 0 
1023 1 -15.3766 -9.06779 0 
1025 1 -14.2448 -9.01023 0 
1027 1 -13.1111 -8.95152 0 
1029 1 -11.9792 -8.88893 0 
932 1 -10.2522 -9.76802 0 
1031 1 -10.849 -8.82251 0 
934 1 -9.12294 -9.70482 0 
1033 1 -9.71785 -8.75658 0 
936 1 -7.99475 -9.63818 0 
1035 1 -8.58907 -8.68846 0 
938 1 -6.86714 -9.57146 0 
940 1 -5.74178 -9.50478 0 
942 1 -4.61818 -9.43891 0 
944 1 -3.4937 -9.38161 0 
946 1 -2.37062 -9.32436 0 
948 1 -1.24622 -9.27653 0 
950 1 -0.123152 -9.23327 0 
952 1 1.00272 -9.19511 0 
954 1 2.12893 -9.15944 0 
956 1 3.25367 -9.12955 0 
958 1 4.37907 -9.10229 0 
960 1 5.50578 -9.07434 0 
962 1 6.633 -9.05045 0 
964 1 7.76126 -9.0268 0 
966 1 8.88984 -9.00659 0 
968 1 10.0196 -8.98982 0 
970 1 11.1502 -8.97315 0 
972 1 12.2811 -8.95788 0 
974 1 13.4119 -8.9445 0 
976 1 14.544 -8.93197 0 
978 1 15.6756 -8.92263 0 
980 1 16.807 -8.91093 0 
982 1 17.9384 -8.90186 0 
984 1 19.0689 -8.89197 0 
986 1 20.2005 -8.88415 0 
988 1 21.332 -8.87599 0 
990 1 22.4639 -8.86779 0 
992 1 23.5952 -8.86203 0 
994 1 24.7276 -8.85652 0 
996 2 25.8608 -8.85435 0 
998 2 26.9933 -8.85174 0 
1000 2 28.1257 -8.84931 0 
1002 2 -27.2783 -8.57905 0 
1101 2 -27.8711 -7.62598 0 
1004 2 -26.1516 -8.54247 0 
1103 2 -26.7449 -7.58983 0 
1006 2 -25.0246 -8.50509 0 
1105 2 -25.6186 -7.5529 0 
1008 1 -23.8946 -8.4646 0 
1107 2 -24.492 -7.51516 0 
1010 1 -22.7639 -8.42106 0 
1012 1 -21.6338 -8.37581 0 
1014 1 -20.5028 -8.329 0 
1016 1 -19.3722 -8.27982 0 
1018 1 -18.2417 -8.23009 0 
1020 1 -17.1098 -8.17789 0 
1022 1 -15.9777 -8.12473 0 
1024 1 -14.846 -8.06669 0 
1026 1 -13.7129 -8.00873 0 
1028 1 -12.5805 -7.94653 0 
1030 1 -11.449 -7.87943 0 
1032 1 -10.3169 -7.81243 0 
1034 1 -9.18637 -7.74169 0 
1036 1 -8.05595 -7.671 0 
1037 1 -7.46021 -8.6193 0 
1038 1 -6.92737 -7.59796 0 
1039 1 -6.33329 -8.54966 0 
1041 1 -5.20835 -8.48036 0 
1043 1 -4.08319 -8.41722 0 
1045 1 -2.96054 -8.35547 0 
1047 1 -1.83565 -8.30357 0 
1049 1 -0.710898 -8.25681 0 
1051 1 0.414703 -8.21665 0 
1053 1 1.54019 -8.18021 0 
1055 1 2.66688 -8.14716 0 
1057 1 3.7935 -8.11984 0 
1059 1 4.92063 -8.09218 0 
1061 1 6.04854 -8.06611 0 
1063 1 7.17631 -8.0439 0 
1065 1 8.30551 -8.02225 0 
1067 1 9.43527 -8.00473 0 
1069 1 10.5659 -7.98887 0 
1071 1 11.6975 -7.97397 0 
1073 1 12.8298 -7.96071 0 
1075 1 13.9628 -7.94819 0 
1077 1 15.0955 -7.9375 0 
1079 1 16.2266 -7.92756 0 
1081 1 17.3584 -7.91791 0 
1083 1 18.4906 -7.90835 0 
1085 1 19.6228 -7.89941 0 
1087 1 20.7543 -7.8921 0 
1089 1 21.8867 -7.88516 0 
1091 1 23.0196 -7.87878 0 
1093 1 24.152 -7.87395 0 
1095 2 25.2861 -7.87134 0 
1097 2 26.419 -7.86899 0 
1099 2 27.5519 -7.8668 0 
1102 2 -27.3381 -6.63684 0 
1104 2 -26.2124 -6.60035 0 
1106 2 -25.0865 -6.56307 0 
1108 1 -23.9589 -6.52434 0 
1109 1 -23.3615 -7.47319 0 
1110 1 -22.8302 -6.48098 0 
1111 1 -22.2314 -7.42889 0 
1112 1 -21.7013 -6.43657 0 
1113 1 -21.1016 -7.38337 0 
1114 1 -20.5733 -6.39003 0 
1115 1 -19.9728 -7.33523 0 
1116 1 -19.4443 -6.34152 0 
1117 1 -18.8428 -7.28551 0 
1119 1 -17.7121 -7.23378 0 
1121 1 -16.581 -7.18046 0 
1123 1 -15.4497 -7.12453 0 
1125 1 -14.3164 -7.06636 0 
1127 1 -13.1841 -7.00484 0 
1129 1 -12.0532 -6.93979 0 
1131 1 -10.9198 -6.87169 0 
1133 1 -9.78752 -6.79908 0 
1135 1 -8.65524 -6.72628 0 
1137 1 -7.52488 -6.65044 0 
1139 1 -6.39688 -6.57251 0 
1040 1 -5.80124 -7.52445 0 
1141 1 -5.26971 -6.49855 0 
1042 1 -4.67505 -7.45628 0 
1143 1 -4.1452 -6.42565 0 
1044 1 -3.5511 -7.38864 0 
1046 1 -2.42563 -7.33172 0 
1048 1 -1.30124 -7.28141 0 
1050 1 -0.175348 -7.23951 0 
1052 1 0.950651 -7.20019 0 
1054 1 2.07719 -7.1674 0 
1056 1 3.20496 -7.13585 0 
1058 1 4.33266 -7.10933 0 
1060 1 5.46124 -7.08299 0 
1062 1 6.5904 -7.05943 0 
1064 1 7.72041 -7.03828 0 
1066 1 8.85158 -7.01945 0 
1068 1 9.98313 -7.004 0 
1070 1 11.1148 -6.98913 0 
1072 1 12.247 -6.97621 0 
1074 1 13.3792 -6.96401 0 
1076 1 14.5122 -6.95295 0 
1078 1 15.6459 -6.94336 0 
1080 1 16.7788 -6.93359 0 
1082 1 17.9108 -6.92513 0 
1084 1 19.0443 -6.91689 0 
1086 1 20.177 -6.9079 0 
1088 1 21.3095 -6.90176 0 
1090 1 22.4432 -6.89628 0 
1092 1 23.5767 -6.89094 0 
1094 1 24.7114 -6.88873 0 
1096 2 25.8451 -6.88616 0 
1098 2 26.9784 -6.88422 0 
1100 2 28.1116 -6.88241 0 
1201 2 -27.9311 -5.68349 0 
1203 2 -26.806 -5.64742 0 
1205 2 -25.6808 -5.61059 0 