ITEM: TIMESTEP
3800
ITEM: NUMBER OF ATOMS
2850
ITEM: BOX BOUNDS ff ff pp
-42.092 42.092
-42.092 42.092
-0.280613 0.280613
ITEM: ATOMS id type xu yu zu 
1 2 -27.3398 -28.9988 0 
3 2 -26.2107 -28.9642 0 
5 2 -25.0816 -28.9291 0 
7 2 -23.9525 -28.8936 0 
9 2 -22.8235 -28.8577 0 
11 2 -21.6944 -28.8213 0 
13 2 -20.5655 -28.7844 0 
15 2 -19.4366 -28.7472 0 
17 2 -18.3079 -28.7095 0 
19 2 -17.1793 -28.6715 0 
21 2 -16.0508 -28.6331 0 
23 2 -14.9226 -28.5944 0 
25 2 -13.7947 -28.5554 0 
27 2 -12.667 -28.5163 0 
29 2 -11.5396 -28.477 0 
31 2 -10.4126 -28.4376 0 
33 2 -9.28592 -28.3982 0 
35 2 -8.15967 -28.3589 0 
37 2 -7.03386 -28.3198 0 
39 2 -5.90848 -28.281 0 
2 2 -26.7941 -28.0086 0 
4 2 -25.6649 -27.9736 0 
6 2 -24.5357 -27.9381 0 
8 2 -23.4065 -27.902 0 
10 2 -22.2773 -27.8656 0 
12 2 -21.1481 -27.8286 0 
14 2 -20.019 -27.7912 0 
16 2 -18.89 -27.7533 0 
18 2 -17.7611 -27.715 0 
20 2 -16.6324 -27.6763 0 
22 2 -15.5039 -27.6373 0 
24 2 -14.3755 -27.5979 0 
26 2 -13.2475 -27.5582 0 
28 2 -12.1197 -27.5183 0 
30 2 -10.9923 -27.4783 0 
32 2 -9.86522 -27.4382 0 
34 2 -8.73856 -27.3981 0 
36 2 -7.61233 -27.3581 0 
38 2 -6.48656 -27.3184 0 
40 2 -5.36126 -27.2789 0 
41 2 -4.78357 -28.2426 0 
42 2 -4.23645 -27.24 0 
43 2 -3.65912 -28.2046 0 
44 2 -3.11213 -27.2015 0 
45 2 -2.53513 -28.1673 0 
46 2 -1.98828 -27.1638 0 
47 2 -1.41159 -28.1307 0 
48 2 -0.8649 -27.1269 0 
49 2 -0.288464 -28.095 0 
51 2 0.834263 -28.0602 0 
53 2 1.95663 -28.0264 0 
55 2 3.07869 -27.9937 0 
57 2 4.20048 -27.9622 0 
59 2 5.32207 -27.9319 0 
61 2 6.4435 -27.9029 0 
63 2 7.56483 -27.8752 0 
65 2 8.68613 -27.8488 0 
67 2 9.80743 -27.8237 0 
69 2 10.9288 -27.8 0 
71 2 12.0503 -27.7775 0 
73 2 13.1719 -27.7563 0 
75 2 14.2937 -27.7363 0 
77 2 15.4157 -27.7174 0 
79 2 16.538 -27.6997 0 
81 2 17.6605 -27.683 0 
83 2 18.7832 -27.6673 0 
85 2 19.9063 -27.6526 0 
87 2 21.0296 -27.6388 0 
89 2 22.1532 -27.6258 0 
91 2 23.2771 -27.6136 0 
93 2 24.4012 -27.6022 0 
95 2 25.5256 -27.5914 0 
97 2 26.6503 -27.5812 0 
99 2 27.7752 -27.5717 0 
101 2 -27.378 -27.0533 0 
103 2 -26.2487 -27.0183 0 
102 2 -26.833 -26.0633 0 
105 2 -25.1194 -26.9828 0 
104 2 -25.7037 -26.0278 0 
107 2 -23.9901 -26.9468 0 
106 2 -24.5742 -25.9918 0 
109 2 -22.8607 -26.9102 0 
108 1 -23.4446 -25.9552 0 
111 2 -21.7314 -26.8732 0 
113 2 -20.6021 -26.8357 0 
115 2 -19.4729 -26.7977 0 
117 2 -18.3437 -26.7591 0 
119 2 -17.2147 -26.7202 0 
121 2 -16.0858 -26.6808 0 
123 2 -14.9572 -26.641 0 
125 2 -13.8287 -26.6009 0 
127 2 -12.7006 -26.5605 0 
129 2 -11.5727 -26.5198 0 
131 2 -10.4452 -26.479 0 
133 2 -9.31813 -26.4382 0 
135 2 -8.19146 -26.3973 0 
137 2 -7.06526 -26.3566 0 
139 2 -5.93954 -26.3162 0 
141 2 -4.81433 -26.2762 0 
143 2 -3.68963 -26.2366 0 
145 2 -2.56545 -26.1977 0 
147 2 -1.44177 -26.1596 0 
50 2 0.258046 -27.0909 0 
149 2 -0.318563 -26.1224 0 
52 2 1.38059 -27.056 0 
151 2 0.804196 -26.0862 0 
54 2 2.50279 -27.0222 0 
153 2 1.92656 -26.0512 0 
56 2 3.62468 -26.9896 0 
155 2 3.04857 -26.0174 0 
58 2 4.74633 -26.9582 0 
157 2 4.1703 -25.9849 0 
60 2 5.86779 -26.9282 0 
159 2 5.2918 -25.9538 0 
62 2 6.98913 -26.8996 0 
64 2 8.11041 -26.8723 0 
66 2 9.23169 -26.8465 0 
68 2 10.353 -26.822 0 
70 2 11.4745 -26.7989 0 
72 2 12.596 -26.7771 0 
74 2 13.7178 -26.7566 0 
76 2 14.8398 -26.7373 0 
78 2 15.962 -26.7192 0 
80 2 17.0845 -26.7023 0 
82 2 18.2073 -26.6863 0 
84 2 19.3304 -26.6714 0 
86 2 20.4538 -26.6575 0 
88 2 21.5774 -26.6444 0 
90 2 22.7014 -26.6321 0 
92 2 23.8256 -26.6206 0 
94 2 24.9501 -26.6098 0 
96 2 26.0749 -26.5996 0 
98 2 27.2 -26.5901 0 
100 2 28.3253 -26.5811 0 
201 2 -27.4179 -25.1085 0 
203 2 -26.2885 -25.0731 0 
205 2 -25.159 -25.0372 0 
207 2 -24.0295 -25.0007 0 
209 1 -22.8995 -24.9632 0 
110 1 -22.3149 -25.9179 0 
211 1 -21.7698 -24.9248 0 
112 1 -21.1854 -25.8798 0 
213 1 -20.6401 -24.886 0 
114 1 -20.056 -25.8414 0 
215 1 -19.5102 -24.8469 0 
116 1 -18.9265 -25.8026 0 
217 1 -18.3809 -24.8072 0 
118 1 -17.7974 -25.7633 0 
120 1 -16.6683 -25.7237 0 
122 1 -15.5396 -25.6835 0 
124 1 -14.4111 -25.6429 0 
126 1 -13.2829 -25.6022 0 
128 1 -12.155 -25.5609 0 
130 1 -11.0274 -25.5194 0 
132 1 -9.90013 -25.4776 0 
134 1 -8.77352 -25.4364 0 
136 1 -7.64717 -25.3949 0 
138 1 -6.52142 -25.3535 0 
140 1 -5.39621 -25.3124 0 
142 1 -4.27139 -25.2719 0 
144 1 -3.14698 -25.2319 0 
146 1 -2.0232 -25.1928 0 
148 1 -0.899711 -25.1546 0 
150 1 0.223211 -25.1173 0 
152 1 1.34579 -25.0814 0 
154 1 2.46816 -25.0467 0 
156 1 3.59009 -25.0129 0 
158 1 4.71188 -24.9812 0 
160 1 5.83378 -24.9506 0 
161 2 6.41316 -25.9242 0 
162 1 6.95541 -24.9211 0 
163 2 7.53443 -25.896 0 
164 1 8.07705 -24.894 0 
165 2 8.65568 -25.8693 0 
167 2 9.77697 -25.844 0 
166 1 9.19873 -24.868 0 
169 2 10.8984 -25.8202 0 
168 1 10.3205 -24.8436 0 
171 2 12.0199 -25.7978 0 
170 1 11.4426 -24.8205 0 
173 2 13.1416 -25.7768 0 
175 2 14.2636 -25.7571 0 
177 2 15.3858 -25.7386 0 
179 2 16.5083 -25.7213 0 
181 2 17.6311 -25.7052 0 
183 2 18.7543 -25.6901 0 
185 2 19.8777 -25.6759 0 
187 2 21.0014 -25.6627 0 
189 2 22.1254 -25.6504 0 
191 2 23.2498 -25.6388 0 
193 2 24.3744 -25.628 0 
195 2 25.4993 -25.6179 0 
197 2 26.6245 -25.6084 0 
199 2 27.75 -25.5994 0 
202 2 -26.8739 -24.1187 0 
204 2 -25.7444 -24.0828 0 
206 2 -24.6148 -24.0464 0 
208 1 -23.4845 -24.0089 0 
210 1 -22.3546 -23.9704 0 
212 1 -21.2248 -23.9314 0 
214 1 -20.0947 -23.8921 0 
216 1 -18.9648 -23.8517 0 
219 1 -17.2516 -24.7672 0 
218 1 -17.8355 -23.8113 0 
221 1 -16.1226 -24.7265 0 
220 1 -16.7064 -23.7704 0 
222 1 -15.5775 -23.7286 0 
223 1 -14.9941 -24.6855 0 
224 1 -14.4487 -23.687 0 
225 1 -13.8656 -24.6443 0 
227 1 -12.7375 -24.6026 0 
229 1 -11.6099 -24.5604 0 
231 1 -10.4823 -24.518 0 
233 1 -9.35531 -24.4756 0 
235 1 -8.22917 -24.4338 0 
237 1 -7.10337 -24.3915 0 
239 1 -5.97777 -24.3494 0 
241 1 -4.8526 -24.3078 0 
243 1 -3.72807 -24.2669 0 
245 1 -2.60412 -24.2264 0 
247 1 -1.48062 -24.1872 0 
249 1 -0.357498 -24.1489 0 
251 1 0.765202 -24.112 0 
253 1 1.88785 -24.0763 0 
255 1 3.01009 -24.0414 0 
257 1 4.13231 -24.0083 0 
259 1 5.25429 -23.9772 0 
261 1 6.37612 -23.9469 0 
263 1 7.49822 -23.9187 0 
265 1 8.62014 -23.8921 0 
267 1 9.74201 -23.8668 0 
269 1 10.8641 -23.8434 0 
271 1 11.9866 -23.8212 0 
172 1 12.5647 -24.7988 0 
273 1 13.1092 -23.8002 0 
174 1 13.6869 -24.7785 0 
275 1 14.2322 -23.7808 0 
176 1 14.8094 -24.7596 0 
277 1 15.3554 -23.7626 0 
178 1 15.9322 -24.7419 0 
279 1 16.4788 -23.7459 0 
180 1 17.0554 -24.7255 0 
281 1 17.6024 -23.7301 0 
182 1 18.1787 -24.7102 0 
283 1 18.726 -23.7155 0 
184 1 19.3023 -24.6956 0 
285 1 19.85 -23.7016 0 
186 1 20.4261 -24.6822 0 
287 1 20.9743 -23.6887 0 
188 1 21.5501 -24.6696 0 
289 1 22.0987 -23.6766 0 
190 1 22.6744 -24.6577 0 
291 1 23.2234 -23.6654 0 
192 1 23.7992 -24.6467 0 
293 1 24.3482 -23.6544 0 
194 1 24.924 -24.6361 0 
295 2 25.4729 -23.6443 0 
196 2 26.0488 -24.6264 0 
198 2 27.1745 -24.6176 0 
200 2 28.3003 -24.6093 0 
301 2 -27.4598 -23.1644 0 
303 2 -26.3303 -23.1287 0 
305 2 -25.2007 -23.0924 0 
307 2 -24.071 -23.0555 0 
309 1 -22.9404 -23.0166 0 
311 1 -21.8101 -22.9773 0 
313 1 -20.6801 -22.9378 0 
315 1 -19.5503 -22.8973 0 
317 1 -18.4206 -22.856 0 
319 1 -17.2911 -22.8149 0 
321 1 -16.1619 -22.7727 0 
323 1 -15.0327 -22.7305 0 
226 1 -13.3203 -23.6449 0 
325 1 -13.9039 -22.6879 0 
327 1 -12.7759 -22.6443 0 
228 1 -12.1926 -23.6019 0 
329 1 -11.648 -22.6009 0 
230 1 -11.0653 -23.5592 0 
331 1 -10.5207 -22.5572 0 
232 1 -9.93805 -23.516 0 
333 1 -9.39363 -22.5131 0 
234 1 -8.81124 -23.4729 0 
236 1 -7.68529 -23.43 0 
238 1 -6.5597 -23.3872 0 
240 1 -5.43441 -23.3447 0 
242 1 -4.30963 -23.3025 0 
244 1 -3.18566 -23.2608 0 
246 1 -2.06209 -23.2204 0 
248 1 -0.938639 -23.1811 0 
250 1 0.184418 -23.1427 0 
252 1 1.30713 -23.1062 0 
254 1 2.42957 -23.0703 0 
256 1 3.55223 -23.0361 0 
258 1 4.67464 -23.0037 0 
260 1 5.79663 -22.9728 0 
262 1 6.91884 -22.9438 0 
264 1 8.04117 -22.9163 0 
266 1 9.16341 -22.8903 0 
268 1 10.2859 -22.866 0 
270 1 11.4085 -22.8434 0 
272 1 12.5313 -22.822 0 
274 1 13.6545 -22.8024 0 
276 1 14.778 -22.7837 0 
278 1 15.9017 -22.7664 0 
280 1 17.0253 -22.7503 0 
282 1 18.1494 -22.7352 0 
284 1 19.2733 -22.721 0 
286 1 20.3978 -22.7081 0 
288 1 21.5225 -22.6954 0 
290 1 22.6473 -22.6841 0 
292 1 23.7724 -22.6729 0 
294 1 24.8976 -22.6625 0 
297 2 26.5987 -23.6355 0 
296 2 26.0228 -22.6533 0 
299 2 27.7248 -23.6273 0 
298 2 27.149 -22.6452 0 
300 2 28.2755 -22.6376 0 
302 2 -26.9167 -22.1747 0 
304 2 -25.7871 -22.1385 0 
306 2 -24.6574 -22.1018 0 
308 1 -23.527 -22.0634 0 
310 1 -22.3965 -22.0239 0 
312 1 -21.2661 -21.984 0 
314 1 -20.1361 -21.9434 0 
316 1 -19.0061 -21.9019 0 
318 1 -17.8762 -21.8601 0 
320 1 -16.7468 -21.8176 0 
322 1 -15.6171 -21.775 0 
324 1 -14.4881 -21.7317 0 
326 1 -13.3598 -21.6878 0 
328 1 -12.2315 -21.6436 0 
330 1 -11.1039 -21.5989 0 
332 1 -9.97663 -21.5541 0 
334 1 -8.84988 -21.5092 0 
335 1 -8.2672 -22.469 0 
336 1 -7.72358 -21.4644 0 
337 1 -7.14139 -22.4255 0 
338 1 -6.59809 -21.4199 0 
339 1 -6.01601 -22.3821 0 
340 1 -5.47323 -21.3757 0 
341 1 -4.89109 -22.3387 0 
343 1 -3.76684 -22.296 0 
345 1 -2.64302 -22.2543 0 
347 1 -1.51947 -22.2138 0 
349 1 -0.396253 -22.1741 0 
351 1 0.726712 -22.1362 0 
353 1 1.84919 -22.0995 0 
355 1 2.97181 -22.0646 0 
357 1 4.09441 -22.0307 0 
359 1 5.21663 -21.9988 0 
361 1 6.33907 -21.969 0 
363 1 7.46165 -21.9407 0 
365 1 8.5843 -21.9138 0 
367 1 9.70695 -21.8888 0 
369 1 10.8299 -21.8656 0 
371 1 11.9531 -21.8437 0 
373 1 13.0765 -21.8234 0 
375 1 14.1999 -21.8048 0 
377 1 15.3236 -21.787 0 
379 1 16.4476 -21.7704 0 
381 1 17.572 -21.7552 0 
383 1 18.6966 -21.7403 0 
385 1 19.821 -21.7271 0 
387 1 20.9457 -21.7145 0 
389 1 22.0708 -21.7025 0 
391 1 23.196 -21.6917 0 
393 1 24.3213 -21.6809 0 
395 2 25.4466 -21.6709 0 
397 2 26.573 -21.6629 0 
399 2 27.6998 -21.6554 0 
401 2 -27.5037 -21.2208 0 
403 2 -26.3741 -21.1849 0 
402 2 -26.9617 -20.2313 0 
405 2 -25.2445 -21.1483 0 
404 2 -25.8321 -20.1949 0 
407 2 -24.1147 -21.111 0 
409 1 -22.9837 -21.0711 0 
411 1 -21.853 -21.0309 0 
413 1 -20.7227 -20.99 0 
415 1 -19.5926 -20.9484 0 
417 1 -18.4625 -20.9062 0 
419 1 -17.3326 -20.8631 0 
421 1 -16.2025 -20.8205 0 
423 1 -15.0731 -20.7765 0 
425 1 -13.9442 -20.7319 0 
427 1 -12.8158 -20.6872 0 
429 1 -11.6878 -20.6416 0 
431 1 -10.56 -20.596 0 
433 1 -9.43292 -20.5503 0 
435 1 -8.30646 -20.5044 0 
437 1 -7.18062 -20.4588 0 
439 1 -6.05545 -20.4133 0 
342 1 -4.34861 -21.3319 0 
441 1 -4.93049 -20.3686 0 
344 1 -3.22453 -21.2889 0 
443 1 -3.80603 -20.3242 0 
346 1 -2.10081 -21.2469 0 
445 1 -2.68217 -20.2809 0 
348 1 -0.977558 -21.2063 0 
447 1 -1.55863 -20.2385 0 
350 1 0.145668 -21.1669 0 
352 1 1.26861 -21.1288 0 
354 1 2.39129 -21.0928 0 
356 1 3.5139 -21.0584 0 
358 1 4.63673 -21.0253 0 
360 1 5.7595 -20.9945 0 
362 1 6.88221 -20.9653 0 
364 1 8.00486 -20.9377 0 
366 1 9.12774 -20.9118 0 
368 1 10.2509 -20.8877 0 
370 1 11.3746 -20.8654 0 
372 1 12.4983 -20.8446 0 
374 1 13.622 -20.8252 0 
376 1 14.7459 -20.8074 0 
378 1 15.87 -20.7905 0 
380 1 16.9944 -20.7748 0 
382 1 18.1192 -20.7601 0 
384 1 19.2442 -20.7459 0 
386 1 20.3692 -20.7335 0 
388 1 21.4945 -20.7214 0 
390 1 22.6199 -20.7101 0 
392 1 23.7452 -20.6994 0 
394 1 24.8709 -20.6892 0 
396 2 25.9969 -20.6804 0 
398 2 27.1238 -20.673 0 
400 2 28.251 -20.6661 0 
501 2 -27.5497 -19.2779 0 
503 2 -26.4202 -19.2417 0 
505 2 -25.2906 -19.2049 0 
406 2 -24.7023 -20.1579 0 
507 2 -24.1608 -19.1673 0 
408 1 -23.5719 -20.119 0 
509 1 -23.0298 -19.1266 0 
410 1 -22.441 -20.0784 0 
511 1 -21.8989 -19.0852 0 
412 1 -21.3103 -20.0372 0 
513 1 -20.768 -19.0432 0 
414 1 -20.1798 -19.9956 0 
416 1 -19.0496 -19.9529 0 
418 1 -17.9195 -19.9097 0 
420 1 -16.789 -19.8666 0 
422 1 -15.6592 -19.8223 0 
424 1 -14.5298 -19.7773 0 
426 1 -13.4007 -19.7317 0 
428 1 -12.2724 -19.6855 0 
430 1 -11.1443 -19.6392 0 
432 1 -10.0165 -19.5924 0 
434 1 -8.88958 -19.5455 0 
436 1 -7.76327 -19.4987 0 
438 1 -6.63769 -19.4518 0 
440 1 -5.51259 -19.406 0 
442 1 -4.38796 -19.3604 0 
444 1 -3.26384 -19.3154 0 
446 1 -2.14 -19.2719 0 
448 1 -1.01645 -19.2296 0 
449 1 -0.435635 -20.1981 0 
450 1 0.106556 -19.1894 0 
451 1 0.687334 -20.159 0 
452 1 1.22939 -19.1508 0 
453 1 1.81041 -20.1214 0 
454 1 2.3523 -19.1138 0 
455 1 2.93325 -20.086 0 
456 1 3.47514 -19.079 0 
457 1 4.05611 -20.0522 0 
459 1 5.17924 -20.0202 0 
461 1 6.30233 -19.9899 0 
463 1 7.42527 -19.9616 0 
465 1 8.54829 -19.9351 0 
467 1 9.67164 -19.91 0 
469 1 10.7954 -19.8871 0 
471 1 11.9194 -19.8658 0 
473 1 13.0435 -19.8458 0 
475 1 14.1678 -19.8276 0 
477 1 15.2922 -19.8105 0 
479 1 16.4168 -19.7945 0 
481 1 17.5415 -19.7797 0 
483 1 18.6665 -19.7653 0 
485 1 19.792 -19.7523 0 
487 1 20.9175 -19.7404 0 
489 1 22.0432 -19.7286 0 
491 1 23.1689 -19.7178 0 
493 1 24.2946 -19.7075 0 
495 2 25.4205 -19.6978 0 
497 2 26.5477 -19.6905 0 
499 2 27.6751 -19.6838 0 
502 2 -27.0088 -18.2886 0 
504 2 -25.8793 -18.252 0 
506 2 -24.7497 -18.2147 0 
508 1 -23.6191 -18.1753 0 
510 1 -22.4883 -18.1337 0 
512 1 -21.3573 -18.0917 0 
514 1 -20.2263 -18.0488 0 
515 1 -19.6374 -19.0006 0 
516 1 -19.0956 -18.0051 0 
517 1 -18.5069 -18.9568 0 
518 1 -17.9647 -17.961 0 
519 1 -17.3764 -18.9134 0 
520 1 -16.8342 -17.9163 0 
521 1 -16.2462 -18.8689 0 
523 1 -15.1164 -18.8235 0 
525 1 -13.987 -18.7775 0 
527 1 -12.8578 -18.7305 0 
529 1 -11.7291 -18.6833 0 
531 1 -10.6013 -18.6358 0 
533 1 -9.47377 -18.5879 0 
535 1 -8.3467 -18.5398 0 
537 1 -7.22054 -18.4916 0 
539 1 -6.09498 -18.444 0 
541 1 -4.97018 -18.3973 0 
543 1 -3.84591 -18.3509 0 
545 1 -2.72185 -18.3059 0 
547 1 -1.59842 -18.2621 0 
549 1 -0.475088 -18.2201 0 
551 1 0.647998 -18.1802 0 
553 1 1.77084 -18.1421 0 
555 1 2.89388 -18.1059 0 
557 1 4.01691 -18.0718 0 
458 1 4.5981 -19.0459 0 
559 1 5.14024 -18.0396 0 
460 1 5.72121 -19.0148 0 
561 1 6.26376 -18.0098 0 
462 1 6.84485 -18.9854 0 
563 1 7.38763 -17.9815 0 
464 1 7.96846 -18.9583 0 
565 1 8.51164 -17.9555 0 
466 1 9.09218 -18.9327 0 
567 1 9.63606 -17.9307 0 
468 1 10.2161 -18.9088 0 
569 1 10.7606 -17.9082 0 
470 1 11.3402 -18.8871 0 
472 1 12.4646 -18.8666 0 
474 1 13.5891 -18.8476 0 
476 1 14.7137 -18.8303 0 
478 1 15.8385 -18.814 0 
480 1 16.9636 -18.7989 0 
482 1 18.0888 -18.7848 0 
484 1 19.2144 -18.7713 0 
486 1 20.3403 -18.7591 0 
488 1 21.4661 -18.7474 0 
490 1 22.5922 -18.7363 0 
492 1 23.7182 -18.7258 0 
494 1 24.8446 -18.716 0 
496 2 25.9714 -18.7078 0 
498 2 27.0991 -18.7012 0 
500 2 28.2271 -18.6951 0 
601 2 -27.5979 -17.3354 0 
603 2 -26.4686 -17.2992 0 
605 2 -25.3391 -17.2621 0 
607 2 -24.2094 -17.2244 0 
609 1 -23.0783 -17.1828 0 
611 1 -21.9473 -17.1407 0 
613 1 -20.8162 -17.0977 0 
615 1 -19.6851 -17.054 0 
617 1 -18.5539 -17.0096 0 
619 1 -17.423 -16.9644 0 
522 1 -15.7038 -17.8705 0 
621 1 -16.2924 -16.9185 0 
524 1 -14.5738 -17.8241 0 
623 1 -15.1618 -16.8717 0 
526 1 -13.4443 -17.7766 0 
625 1 -14.0317 -16.8235 0 
528 1 -12.3152 -17.7288 0 
627 1 -12.9019 -16.7751 0 
530 1 -11.1866 -17.6801 0 
532 1 -10.0585 -17.6313 0 
534 1 -8.9309 -17.5822 0 
536 1 -7.80437 -17.5325 0 
538 1 -6.67839 -17.4835 0 
540 1 -5.55301 -17.4349 0 
542 1 -4.42839 -17.3871 0 
544 1 -3.30397 -17.3408 0 
546 1 -2.18022 -17.2951 0 
548 1 -1.05695 -17.2515 0 
550 1 0.0662797 -17.2099 0 
552 1 1.18923 -17.1703 0 
554 1 2.31224 -17.1331 0 
556 1 3.43548 -17.0978 0 
558 1 4.55891 -17.0648 0 
560 1 5.68252 -17.0337 0 
562 1 6.80631 -17.0049 0 
564 1 7.93062 -16.978 0 
566 1 9.05495 -16.9529 0 
568 1 10.1798 -16.9294 0 
571 1 11.885 -17.8872 0 
570 1 11.3048 -16.9077 0 
573 1 13.0098 -17.8678 0 
572 1 12.4297 -16.8879 0 
575 1 14.1348 -17.85 0 
574 1 13.5552 -16.8697 0 
577 1 15.2599 -17.8333 0 
576 1 14.6808 -16.8526 0 
579 1 16.3852 -17.8181 0 
578 1 15.8066 -16.837 0 
581 1 17.5107 -17.8038 0 
580 1 16.9324 -16.8226 0 
583 1 18.6366 -17.7903 0 
582 1 18.0586 -16.8091 0 
585 1 19.7629 -17.7777 0 
584 1 19.185 -16.7964 0 
587 1 20.8891 -17.7659 0 
586 1 20.3116 -16.7843 0 
589 1 22.0155 -17.7548 0 
588 1 21.4383 -16.7732 0 
591 1 23.1418 -17.7443 0 
590 1 22.5649 -16.7626 0 
593 1 24.2683 -17.7342 0 
592 1 23.6916 -16.7526 0 
595 2 25.3948 -17.725 0 
594 1 24.8189 -16.7433 0 
596 2 25.9465 -16.7357 0 
597 2 26.5229 -17.7186 0 
598 2 27.0751 -16.7299 0 
599 2 27.6512 -17.7126 0 
600 2 28.2039 -16.7246 0 
602 2 -27.0583 -16.3463 0 
604 2 -25.929 -16.3096 0 
606 2 -24.7995 -16.2721 0 
608 1 -23.6689 -16.2323 0 
610 1 -22.538 -16.1901 0 
612 1 -21.4069 -16.1472 0 
614 1 -20.2758 -16.1034 0 
616 1 -19.1445 -16.059 0 
618 1 -18.0132 -16.0136 0 
620 1 -16.8819 -15.9673 0 
622 1 -15.7511 -15.9203 0 
624 1 -14.6206 -15.8719 0 
626 1 -13.49 -15.8227 0 
628 1 -12.3601 -15.7727 0 
629 1 -11.7729 -16.7258 0 
630 1 -11.2308 -15.7217 0 
631 1 -10.6443 -16.6758 0 
632 1 -10.1022 -15.6706 0 
633 1 -9.51622 -16.6259 0 
634 1 -8.97464 -15.6185 0 
635 1 -8.38924 -16.5747 0 
637 1 -7.26265 -16.5242 0 
639 1 -6.13676 -16.4739 0 
641 1 -5.01172 -16.4243 0 
643 1 -3.88721 -16.3765 0 
645 1 -2.7634 -16.3293 0 
647 1 -1.63966 -16.2835 0 
649 1 -0.516156 -16.2404 0 
651 1 0.606999 -16.199 0 
653 1 1.73029 -16.1603 0 
655 1 2.85366 -16.124 0 
657 1 3.97694 -16.0898 0 
659 1 5.10056 -16.0577 0 
661 1 6.22465 -16.0281 0 
663 1 7.34901 -16.0007 0 
665 1 8.47358 -15.9746 0 
667 1 9.59857 -15.9507 0 
669 1 10.7239 -15.9287 0 
671 1 11.8494 -15.9079 0 
673 1 12.9753 -15.8894 0 
675 1 14.1013 -15.872 0 
677 1 15.2274 -15.8561 0 
679 1 16.3538 -15.8414 0 
681 1 17.4803 -15.8278 0 
683 1 18.6071 -15.8151 0 
685 1 19.7339 -15.8027 0 
687 1 20.8609 -15.7915 0 
689 1 21.988 -15.7809 0 
691 1 23.1152 -15.7708 0 
693 1 24.2425 -15.7615 0 
695 2 25.3699 -15.7527 0 
697 2 26.4989 -15.7471 0 
699 2 27.6281 -15.742 0 
701 2 -27.6483 -15.3934 0 
703 2 -26.5193 -15.357 0 
705 2 -25.3901 -15.3199 0 
707 2 -24.2607 -15.282 0 
709 1 -23.1297 -15.24 0 
711 1 -21.9984 -15.1972 0 
713 1 -20.8671 -15.1534 0 
715 1 -19.7357 -15.1089 0 
717 1 -18.6042 -15.0636 0 
719 1 -17.4726 -15.0173 0 
721 1 -16.3411 -14.9698 0 
723 1 -15.2102 -14.9212 0 
725 1 -14.0792 -14.8716 0 
727 1 -12.9487 -14.8209 0 
729 1 -11.8189 -14.7692 0 
731 1 -10.6895 -14.717 0 
733 1 -9.56116 -14.6636 0 
636 1 -7.84735 -15.5664 0 
735 1 -8.43331 -14.6102 0 
638 1 -6.72095 -15.5145 0 
737 1 -7.30616 -14.5566 0 
640 1 -5.59539 -15.4631 0 
739 1 -6.18 -14.5033 0 
642 1 -4.47044 -15.413 0 
644 1 -3.34632 -15.3641 0 
646 1 -2.22257 -15.3167 0 
648 1 -1.09906 -15.2715 0 
650 1 0.0241317 -15.2285 0 
652 1 1.14745 -15.1881 0 
654 1 2.271 -15.1504 0 
656 1 3.39445 -15.1149 0 
658 1 4.51822 -15.082 0 
660 1 5.64242 -15.0512 0 
662 1 6.76694 -15.0231 0 
664 1 7.89173 -14.9966 0 
666 1 9.01715 -14.9721 0 
668 1 10.1428 -14.9493 0 
670 1 11.2684 -14.9282 0 
672 1 12.3946 -14.909 0 
674 1 13.521 -14.8913 0 
676 1 14.6476 -14.8751 0 
678 1 15.7745 -14.8602 0 
680 1 16.9015 -14.8463 0 
682 1 18.0286 -14.8335 0 
684 1 19.1558 -14.8213 0 
686 1 20.2832 -14.8098 0 
688 1 21.4107 -14.7992 0 
690 1 22.5384 -14.7893 0 
692 1 23.6662 -14.7797 0 
694 1 24.7942 -14.7709 0 
696 2 25.9226 -14.7642 0 
698 2 27.0521 -14.7592 0 
700 2 28.1818 -14.7547 0 
702 2 -27.11 -14.4044 0 
801 2 -27.7009 -13.4516 0 
704 2 -25.9811 -14.3676 0 
803 2 -26.5724 -13.4152 0 
706 2 -24.852 -14.3301 0 
805 2 -25.4437 -13.3781 0 
708 1 -23.7215 -14.2899 0 
807 2 -24.3146 -13.3401 0 
710 1 -22.5906 -14.2475 0 
809 1 -23.1836 -13.2978 0 
712 1 -21.4592 -14.204 0 
714 1 -20.3278 -14.1594 0 
716 1 -19.1963 -14.1141 0 
718 1 -18.0648 -14.068 0 
720 1 -16.9331 -14.0206 0 
722 1 -15.8016 -13.9714 0 
724 1 -14.6701 -13.9217 0 
726 1 -13.5389 -13.8705 0 
728 1 -12.4082 -13.818 0 
730 1 -11.2782 -13.7649 0 
732 1 -10.149 -13.7104 0 
734 1 -9.02026 -13.6555 0 
736 1 -7.89248 -13.6004 0 
738 1 -6.76583 -13.5451 0 
740 1 -5.63997 -13.4909 0 
741 1 -5.05452 -14.451 0 
742 1 -4.51492 -13.4373 0 
743 1 -3.93006 -14.3999 0 
744 1 -3.39052 -13.3855 0 
745 1 -2.8063 -14.3507 0 
746 1 -2.26694 -13.336 0 
747 1 -1.68256 -14.3033 0 
749 1 -0.55928 -14.2583 0 
751 1 0.56374 -14.2162 0 
753 1 1.68724 -14.1772 0 
755 1 2.8111 -14.1402 0 
757 1 3.93531 -14.1064 0 
759 1 5.05975 -14.0746 0 
761 1 6.18451 -14.0453 0 
763 1 7.30964 -14.0184 0 
765 1 8.43509 -13.9935 0 
767 1 9.56079 -13.9699 0 
769 1 10.687 -13.9482 0 
771 1 11.8137 -13.9286 0 
773 1 12.9404 -13.9106 0 
775 1 14.0676 -13.894 0 
777 1 15.195 -13.8788 0 
779 1 16.3225 -13.8647 0 
781 1 17.45 -13.8518 0 
783 1 18.5775 -13.8396 0 
785 1 19.7053 -13.8282 0 
787 1 20.8332 -13.8175 0 
789 1 21.9613 -13.8077 0 
791 1 23.0896 -13.7983 0 
793 1 24.2179 -13.7893 0 
795 2 25.3462 -13.7811 0 
797 2 26.4761 -13.7764 0 
799 2 27.6062 -13.772 0 
802 2 -27.164 -12.4626 0 
804 2 -26.0357 -12.4259 0 
806 2 -24.9071 -12.3884 0 
808 1 -23.777 -12.3481 0 
810 1 -22.6461 -12.3057 0 
811 1 -22.0524 -13.2549 0 
812 1 -21.5149 -12.2619 0 
813 1 -20.921 -13.2105 0 
814 1 -20.3835 -12.2169 0 
815 1 -19.7894 -13.1653 0 
816 1 -19.2519 -12.171 0 
817 1 -18.6577 -13.119 0 
818 1 -18.1199 -12.1238 0 
819 1 -17.526 -13.0719 0 
821 1 -16.3941 -13.0229 0 
823 1 -15.262 -12.9727 0 
825 1 -14.1303 -12.9213 0 
827 1 -12.9991 -12.8686 0 
829 1 -11.8683 -12.8142 0 
831 1 -10.7383 -12.7587 0 
833 1 -9.60869 -12.7028 0 
835 1 -8.47998 -12.6458 0 
837 1 -7.35241 -12.5887 0 
839 1 -6.22589 -12.5323 0 
841 1 -5.10059 -12.4764 0 
843 1 -3.97572 -12.4222 0 
845 1 -2.85148 -12.3694 0 
748 1 -1.14359 -13.2887 0 
847 1 -1.7279 -12.32 0 
849 1 -0.604577 -12.2736 0 
750 1 -0.0203349 -13.2446 0 
851 1 0.518858 -12.231 0 
752 1 1.10315 -13.2038 0 
853 1 1.6425 -12.1912 0 
754 1 2.22673 -13.1658 0 
756 1 3.35101 -13.1307 0 
758 1 4.47574 -13.0981 0 
760 1 5.60089 -13.0679 0 
762 1 6.72636 -13.0401 0 
764 1 7.85206 -13.0145 0 
766 1 8.97826 -12.9907 0 
768 1 10.1051 -12.9687 0 
770 1 11.2322 -12.9483 0 
772 1 12.3595 -12.9297 0 
774 1 13.4871 -12.9129 0 
776 1 14.6151 -12.8972 0 
778 1 15.7431 -12.8831 0 
780 1 16.8712 -12.8699 0 
782 1 17.9992 -12.8576 0 
784 1 19.1275 -12.8463 0 
786 1 20.2559 -12.8356 0 
788 1 21.3845 -12.8258 0 
790 1 22.5131 -12.8165 0 
792 1 23.6416 -12.8077 0 
794 1 24.7707 -12.7995 0 
796 2 25.9 -12.7934 0 
798 2 27.0306 -12.7893 0 
800 2 28.1612 -12.7854 0 
901 2 -27.7557 -11.5099 0 
903 2 -26.6279 -11.4735 0 
905 2 -25.4997 -11.4364 0 
907 2 -24.3713 -11.3985 0 
909 1 -23.2405 -11.3563 0 
911 1 -22.1098 -11.3132 0 
913 1 -20.9787 -11.2689 0 
915 1 -19.8472 -11.2233 0 
917 1 -18.7153 -11.1767 0 
820 1 -16.988 -12.0753 0 
919 1 -17.5832 -11.1282 0 
822 1 -15.8558 -12.0251 0 
921 1 -16.4511 -11.0783 0 
824 1 -14.7236 -11.9735 0 
923 1 -15.3187 -11.0267 0 
826 1 -13.5916 -11.9202 0 
828 1 -12.4602 -11.8654 0 
830 1 -11.3294 -11.809 0 
832 1 -10.1989 -11.7517 0 
834 1 -9.06969 -11.6935 0 
836 1 -7.94115 -11.6346 0 
838 1 -6.81336 -11.5758 0 
840 1 -5.68712 -11.5171 0 
842 1 -4.5619 -11.4602 0 
844 1 -3.43771 -11.4046 0 
846 1 -2.31379 -11.3522 0 
848 1 -1.1901 -11.3032 0 
850 1 -0.06651 -11.2583 0 
852 1 1.05726 -11.2168 0 
855 1 2.76669 -12.1548 0 
854 1 2.18163 -11.1788 0 
857 1 3.89143 -12.1214 0 
856 1 3.30661 -11.1443 0 
859 1 5.01672 -12.0905 0 
858 1 4.43218 -11.1126 0 
861 1 6.14247 -12.062 0 
860 1 5.55813 -11.0834 0 
863 1 7.26894 -12.0355 0 
862 1 6.6848 -11.0567 0 
865 1 8.39563 -12.0112 0 
864 1 7.81222 -11.0318 0 
867 1 9.52271 -11.9889 0 
869 1 10.6501 -11.9682 0 
871 1 11.778 -11.949 0 
873 1 12.9062 -11.9316 0 
875 1 14.0348 -11.9157 0 
877 1 15.1634 -11.9011 0 
879 1 16.2919 -11.888 0 
881 1 17.4206 -11.8756 0 
883 1 18.5495 -11.8643 0 
885 1 19.6784 -11.8537 0 
887 1 20.8073 -11.8438 0 
889 1 21.9365 -11.8345 0 
891 1 23.0656 -11.8257 0 
893 1 24.1948 -11.818 0 
895 2 25.3239 -11.8103 0 
897 2 26.4549 -11.8064 0 
899 2 27.586 -11.8028 0 
902 2 -27.2202 -10.5209 0 
904 2 -26.0925 -10.4842 0 
906 2 -24.9646 -10.4468 0 
908 1 -23.8353 -10.4069 0 
910 1 -22.7051 -10.3643 0 
912 1 -21.5744 -10.3207 0 
914 1 -20.4433 -10.2758 0 
916 1 -19.3117 -10.2295 0 
918 1 -18.18 -10.1819 0 
920 1 -17.0479 -10.1322 0 
922 1 -15.9154 -10.0809 0 
924 1 -14.7828 -10.0279 0 
925 1 -14.1864 -10.9735 0 
926 1 -13.65 -9.97272 0 
927 1 -13.0541 -10.9182 0 
928 1 -12.5174 -9.91501 0 
929 1 -11.9223 -10.861 0 
930 1 -11.3852 -9.85595 0 
931 1 -10.791 -10.8028 0 
933 1 -9.66056 -10.7429 0 
935 1 -8.53105 -10.6825 0 
937 1 -7.40258 -10.6215 0 
939 1 -6.27562 -10.56 0 
941 1 -5.14965 -10.5 0 
943 1 -4.02503 -10.4412 0 
945 1 -2.90088 -10.3856 0 
947 1 -1.77706 -10.3338 0 
949 1 -0.653229 -10.2858 0 
951 1 0.470874 -10.2425 0 
953 1 1.59542 -10.2029 0 
955 1 2.72054 -10.1669 0 
957 1 3.84646 -10.1346 0 
959 1 4.97297 -10.1045 0 
961 1 6.10013 -10.0775 0 
963 1 7.22797 -10.0525 0 
965 1 8.35628 -10.0291 0 
866 1 8.93996 -11.0089 0 
967 1 9.48493 -10.0074 0 
868 1 10.068 -10.9878 0 
969 1 10.6141 -9.98776 0 
870 1 11.1964 -10.9686 0 
971 1 11.7436 -9.9697 0 
872 1 12.3252 -10.9507 0 
973 1 12.8731 -9.95304 0 
874 1 13.4542 -10.9343 0 
975 1 14.0028 -9.93764 0 
876 1 14.5833 -10.9194 0 
977 1 15.133 -9.92407 0 
878 1 15.7127 -10.906 0 
979 1 16.2631 -9.91146 0 
880 1 16.842 -10.8936 0 
981 1 17.393 -9.89975 0 
882 1 17.9715 -10.8821 0 
983 1 18.5232 -9.88934 0 
884 1 19.101 -10.8717 0 
985 1 19.6533 -9.8796 0 
886 1 20.2305 -10.8617 0 
987 1 20.7834 -9.87055 0 
888 1 21.36 -10.8527 0 
890 1 22.4896 -10.844 0 
989 1 21.9133 -9.86206 0 
892 1 23.6194 -10.8362 0 
991 1 23.0435 -9.85443 0 
894 1 24.7491 -10.8287 0 
993 1 24.1736 -9.84716 0 
896 2 25.8793 -10.8234 0 
995 2 25.3037 -9.84035 0 
898 2 27.0108 -10.8201 0 
997 2 26.4357 -9.83726 0 
900 2 28.1423 -10.817 0 
999 2 27.5677 -9.8344 0 
1001 2 -27.8125 -9.56805 0 
1003 2 -26.6854 -9.5318 0 
1005 2 -25.5581 -9.49477 0 
1007 2 -24.4305 -9.45693 0 
1009 1 -23.3007 -9.41526 0 
1011 1 -22.1706 -9.37232 0 
1013 1 -21.0401 -9.3281 0 
1015 1 -19.9091 -9.28262 0 
1017 1 -18.7776 -9.2356 0 
1019 1 -17.6459 -9.18671 0 
1021 1 -16.5137 -9.13613 0 
1023 1 -15.3809 -9.0833 0 
1025 1 -14.248 -9.0285 0 
1027 1 -13.115 -8.97084 0 
1029 1 -11.982 -8.91133 0 
932 1 -10.254 -9.79497 0 
1031 1 -10.8496 -8.84933 0 
934 1 -9.12339 -9.73276 0 
1033 1 -9.71786 -8.78559 0 
936 1 -7.99365 -9.66953 0 
1035 1 -8.58698 -8.72046 0 
938 1 -6.86567 -9.60527 0 
940 1 -5.73885 -9.54221 0 
942 1 -4.61343 -9.47986 0 
944 1 -3.4889 -9.42038 0 
946 1 -2.36498 -9.36506 0 
948 1 -1.24122 -9.31403 0 
950 1 -0.116876 -9.26806 0 
952 1 1.00785 -9.22704 0 
954 1 2.13327 -9.18969 0 
956 1 3.25962 -9.15624 0 
958 1 4.38667 -9.12559 0 
960 1 5.51466 -9.09789 0 
962 1 6.64305 -9.07265 0 
964 1 7.77189 -9.049 0 
966 1 8.9012 -9.02711 0 
968 1 10.0312 -9.00698 0 
970 1 11.1615 -8.98854 0 
972 1 12.2919 -8.97173 0 
974 1 13.4224 -8.95611 0 
976 1 14.553 -8.94196 0 
978 1 15.6838 -8.92941 0 
980 1 16.8146 -8.91741 0 
982 1 17.9455 -8.90685 0 
984 1 19.0761 -8.89723 0 
986 1 20.2068 -8.88824 0 
988 1 21.3373 -8.87989 0 
990 1 22.4681 -8.87236 0 
992 1 23.5987 -8.8654 0 
994 1 24.7297 -8.85896 0 
996 2 25.8608 -8.85435 0 
998 2 26.9933 -8.85174 0 
1000 2 28.1257 -8.84931 0 
1002 2 -27.2783 -8.57905 0 
1101 2 -27.8711 -7.62598 0 
1004 2 -26.1516 -8.54247 0 
1103 2 -26.7449 -7.58983 0 
1006 2 -25.0246 -8.50509 0 
1105 2 -25.6186 -7.5529 0 
1008 1 -23.8962 -8.46552 0 
1107 2 -24.492 -7.51516 0 
1010 1 -22.767 -8.42363 0 
1012 1 -21.6372 -8.38023 0 
1014 1 -20.507 -8.33567 0 
1016 1 -19.3762 -8.2895 0 
1018 1 -18.2448 -8.24135 0 
1020 1 -17.1131 -8.19141 0 
1022 1 -15.9809 -8.13966 0 
1024 1 -14.8479 -8.08518 0 
1026 1 -13.715 -8.02799 0 
1028 1 -12.5815 -7.96862 0 
1030 1 -11.4484 -7.90625 0 
1032 1 -10.3155 -7.84136 0 
1034 1 -9.18328 -7.77449 0 
1036 1 -8.05247 -7.70524 0 
1037 1 -7.45771 -8.65358 0 
1038 1 -6.92277 -7.63557 0 
1039 1 -6.32955 -8.58708 0 
1041 1 -5.20318 -8.5211 0 
1043 1 -4.07806 -8.4572 0 
1045 1 -2.95392 -8.39743 0 
1047 1 -1.83035 -8.3427 0 
1049 1 -0.706049 -8.29428 0 
1051 1 0.41909 -8.25098 0 
1053 1 1.54487 -8.21232 0 
1055 1 2.67187 -8.1779 0 
1057 1 3.79946 -8.14646 0 
1059 1 4.92797 -8.1183 0 
1061 1 6.05713 -8.09242 0 
1063 1 7.18698 -8.06844 0 
1065 1 8.31721 -8.04655 0 
1067 1 9.44798 -8.02642 0 
1069 1 10.5791 -8.0076 0 
1071 1 11.7102 -7.99014 0 
1073 1 12.8415 -7.97476 0 
1075 1 13.973 -7.96026 0 
1077 1 15.1046 -7.94732 0 
1079 1 16.2363 -7.93545 0 
1081 1 17.3679 -7.92442 0 
1083 1 18.4993 -7.91461 0 
1085 1 19.6304 -7.90569 0 
1087 1 20.7616 -7.89752 0 
1089 1 21.8927 -7.8903 0 
1091 1 23.024 -7.88326 0 
1093 1 24.1551 -7.87725 0 
1095 2 25.2861 -7.87134 0 
1097 2 26.419 -7.86899 0 
1099 2 27.5519 -7.8668 0 
1102 2 -27.3381 -6.63684 0 
1104 2 -26.2124 -6.60035 0 
1106 2 -25.0865 -6.56307 0 
1108 1 -23.9595 -6.52408 0 
1109 1 -23.3634 -7.47414 0 
1110 1 -22.8317 -6.48274 0 
1111 1 -22.2345 -7.43201 0 
1112 1 -21.7033 -6.44036 0 
1113 1 -21.1051 -7.38824 0 
1114 1 -20.5744 -6.39605 0 
1115 1 -19.9753 -7.34308 0 
1116 1 -19.445 -6.35006 0 
1117 1 -18.8448 -7.29602 0 
1119 1 -17.7136 -7.24681 0 
1121 1 -16.582 -7.19575 0 
1123 1 -15.4498 -7.14266 0 
1125 1 -14.3173 -7.08607 0 
1127 1 -13.184 -7.02746 0 
1129 1 -12.0503 -6.96539 0 
1131 1 -10.9166 -6.90008 0 
1133 1 -9.78297 -6.83188 0 
1135 1 -8.65048 -6.76058 0 
1137 1 -7.51922 -6.68798 0 
1139 1 -6.38978 -6.61382 0 
1040 1 -5.79498 -7.56536 0 
1141 1 -5.26268 -6.53956 0 
1042 1 -4.66924 -7.49668 0 
1143 1 -4.13747 -6.46874 0 
1044 1 -3.54471 -7.43177 0 
1046 1 -2.42089 -7.3722 0 
1048 1 -1.29643 -7.32064 0 
1050 1 -0.17126 -7.27514 0 
1052 1 0.954947 -7.23457 0 
1054 1 2.0826 -7.19932 0 
1056 1 3.21108 -7.16713 0 
1058 1 4.34054 -7.13843 0 
1060 1 5.47054 -7.11216 0 
1062 1 6.60155 -7.08824 0 
1064 1 7.73276 -7.06562 0 
1066 1 8.86422 -7.04563 0 
1068 1 9.9959 -7.02672 0 
1070 1 11.1278 -7.00879 0 
1072 1 12.2603 -6.99329 0 
1074 1 13.3926 -6.97886 0 
1076 1 14.525 -6.96552 0 
1078 1 15.6574 -6.95345 0 
1080 1 16.7897 -6.94213 0 
1082 1 17.9218 -6.93201 0 
1084 1 19.0537 -6.92296 0 
1086 1 20.1857 -6.91489 0 
1088 1 21.3175 -6.90769 0 
1090 1 22.4491 -6.9012 0 
1092 1 23.581 -6.89516 0 
1094 1 24.7129 -6.88971 0 
1096 2 25.8451 -6.88616 0 
1098 2 26.9784 -6.88422 0 
1100 2 28.1116 -6.88241 0 
1201 2 -27.9311 -5.68349 0 
1203 2 -26.806 -5.64742 0 
1205 2 -25.6808 -5.61059 0 