ITEM: TIMESTEP
2700
ITEM: NUMBER OF ATOMS
2850
ITEM: BOX BOUNDS ff ff pp
-42.092 42.092
-42.092 42.092
-0.280613 0.280613
ITEM: ATOMS id type xu yu zu 
1 2 -27.3398 -28.9988 0 
3 2 -26.2107 -28.9642 0 
5 2 -25.0816 -28.9291 0 
7 2 -23.9525 -28.8936 0 
9 2 -22.8235 -28.8577 0 
11 2 -21.6944 -28.8213 0 
13 2 -20.5655 -28.7844 0 
15 2 -19.4366 -28.7472 0 
17 2 -18.3079 -28.7095 0 
19 2 -17.1793 -28.6715 0 
21 2 -16.0508 -28.6331 0 
23 2 -14.9226 -28.5944 0 
25 2 -13.7947 -28.5554 0 
27 2 -12.667 -28.5163 0 
29 2 -11.5396 -28.477 0 
31 2 -10.4126 -28.4376 0 
33 2 -9.28592 -28.3982 0 
35 2 -8.15967 -28.3589 0 
37 2 -7.03386 -28.3198 0 
39 2 -5.90848 -28.281 0 
2 2 -26.7941 -28.0086 0 
4 2 -25.6649 -27.9736 0 
6 2 -24.5357 -27.9381 0 
8 2 -23.4065 -27.902 0 
10 2 -22.2773 -27.8656 0 
12 2 -21.1481 -27.8286 0 
14 2 -20.019 -27.7912 0 
16 2 -18.89 -27.7533 0 
18 2 -17.7611 -27.715 0 
20 2 -16.6324 -27.6763 0 
22 2 -15.5039 -27.6373 0 
24 2 -14.3755 -27.5979 0 
26 2 -13.2475 -27.5582 0 
28 2 -12.1197 -27.5183 0 
30 2 -10.9923 -27.4783 0 
32 2 -9.86522 -27.4382 0 
34 2 -8.73856 -27.3981 0 
36 2 -7.61233 -27.3581 0 
38 2 -6.48656 -27.3184 0 
40 2 -5.36126 -27.2789 0 
41 2 -4.78357 -28.2426 0 
42 2 -4.23645 -27.24 0 
43 2 -3.65912 -28.2046 0 
44 2 -3.11213 -27.2015 0 
45 2 -2.53513 -28.1673 0 
46 2 -1.98828 -27.1638 0 
47 2 -1.41159 -28.1307 0 
48 2 -0.8649 -27.1269 0 
49 2 -0.288464 -28.095 0 
51 2 0.834263 -28.0602 0 
53 2 1.95663 -28.0264 0 
55 2 3.07869 -27.9937 0 
57 2 4.20048 -27.9622 0 
59 2 5.32207 -27.9319 0 
61 2 6.4435 -27.9029 0 
63 2 7.56483 -27.8752 0 
65 2 8.68613 -27.8488 0 
67 2 9.80743 -27.8237 0 
69 2 10.9288 -27.8 0 
71 2 12.0503 -27.7775 0 
73 2 13.1719 -27.7563 0 
75 2 14.2937 -27.7363 0 
77 2 15.4157 -27.7174 0 
79 2 16.538 -27.6997 0 
81 2 17.6605 -27.683 0 
83 2 18.7832 -27.6673 0 
85 2 19.9063 -27.6526 0 
87 2 21.0296 -27.6388 0 
89 2 22.1532 -27.6258 0 
91 2 23.2771 -27.6136 0 
93 2 24.4012 -27.6022 0 
95 2 25.5256 -27.5914 0 
97 2 26.6503 -27.5812 0 
99 2 27.7752 -27.5717 0 
101 2 -27.378 -27.0533 0 
103 2 -26.2487 -27.0183 0 
102 2 -26.833 -26.0633 0 
105 2 -25.1194 -26.9828 0 
104 2 -25.7037 -26.0278 0 
107 2 -23.9901 -26.9468 0 
106 2 -24.5742 -25.9918 0 
109 2 -22.8607 -26.9102 0 
108 1 -23.4442 -25.9549 0 
111 2 -21.7314 -26.8732 0 
113 2 -20.6021 -26.8357 0 
115 2 -19.4729 -26.7977 0 
117 2 -18.3437 -26.7591 0 
119 2 -17.2147 -26.7202 0 
121 2 -16.0858 -26.6808 0 
123 2 -14.9572 -26.641 0 
125 2 -13.8287 -26.6009 0 
127 2 -12.7006 -26.5605 0 
129 2 -11.5727 -26.5198 0 
131 2 -10.4452 -26.479 0 
133 2 -9.31813 -26.4382 0 
135 2 -8.19146 -26.3973 0 
137 2 -7.06526 -26.3566 0 
139 2 -5.93954 -26.3162 0 
141 2 -4.81433 -26.2762 0 
143 2 -3.68963 -26.2366 0 
145 2 -2.56545 -26.1977 0 
147 2 -1.44177 -26.1596 0 
50 2 0.258046 -27.0909 0 
149 2 -0.318563 -26.1224 0 
52 2 1.38059 -27.056 0 
151 2 0.804196 -26.0862 0 
54 2 2.50279 -27.0222 0 
153 2 1.92656 -26.0512 0 
56 2 3.62468 -26.9896 0 
155 2 3.04857 -26.0174 0 
58 2 4.74633 -26.9582 0 
157 2 4.1703 -25.9849 0 
60 2 5.86779 -26.9282 0 
159 2 5.2918 -25.9538 0 
62 2 6.98913 -26.8996 0 
64 2 8.11041 -26.8723 0 
66 2 9.23169 -26.8465 0 
68 2 10.353 -26.822 0 
70 2 11.4745 -26.7989 0 
72 2 12.596 -26.7771 0 
74 2 13.7178 -26.7566 0 
76 2 14.8398 -26.7373 0 
78 2 15.962 -26.7192 0 
80 2 17.0845 -26.7023 0 
82 2 18.2073 -26.6863 0 
84 2 19.3304 -26.6714 0 
86 2 20.4538 -26.6575 0 
88 2 21.5774 -26.6444 0 
90 2 22.7014 -26.6321 0 
92 2 23.8256 -26.6206 0 
94 2 24.9501 -26.6098 0 
96 2 26.0749 -26.5996 0 
98 2 27.2 -26.5901 0 
100 2 28.3253 -26.5811 0 
201 2 -27.4179 -25.1085 0 
203 2 -26.2885 -25.0731 0 
205 2 -25.159 -25.0372 0 
207 2 -24.0295 -25.0007 0 
209 1 -22.8989 -24.9628 0 
110 1 -22.3145 -25.9175 0 
211 1 -21.7693 -24.9242 0 
112 1 -21.1854 -25.88 0 
213 1 -20.6397 -24.8863 0 
114 1 -20.0562 -25.8417 0 
215 1 -19.5103 -24.8469 0 
116 1 -18.9268 -25.8025 0 
217 1 -18.3805 -24.8069 0 
118 1 -17.7975 -25.7636 0 
120 1 -16.6684 -25.7238 0 
122 1 -15.5392 -25.6831 0 
124 1 -14.4106 -25.6428 0 
126 1 -13.2826 -25.6025 0 
128 1 -12.1546 -25.5613 0 
130 1 -11.0264 -25.52 0 
132 1 -9.8993 -25.478 0 
134 1 -8.77256 -25.4364 0 
136 1 -7.64616 -25.3944 0 
138 1 -6.52049 -25.3533 0 
140 1 -5.39513 -25.3122 0 
142 1 -4.27057 -25.2714 0 
144 1 -3.14618 -25.2318 0 
146 1 -2.02256 -25.1929 0 
148 1 -0.899413 -25.1545 0 
150 1 0.223271 -25.1179 0 
152 1 1.34571 -25.0812 0 
154 1 2.468 -25.0467 0 
156 1 3.59018 -25.0134 0 
158 1 4.71242 -24.9816 0 
160 1 5.83436 -24.9508 0 
161 2 6.41316 -25.9242 0 
162 1 6.95576 -24.9227 0 
163 2 7.53443 -25.896 0 
164 1 8.07753 -24.8949 0 
165 2 8.65568 -25.8693 0 
167 2 9.77697 -25.844 0 
166 1 9.19923 -24.8691 0 
169 2 10.8984 -25.8202 0 
168 1 10.3211 -24.8443 0 
171 2 12.0199 -25.7978 0 
170 1 11.4429 -24.8212 0 
173 2 13.1416 -25.7768 0 
175 2 14.2636 -25.7571 0 
177 2 15.3858 -25.7386 0 
179 2 16.5083 -25.7213 0 
181 2 17.6311 -25.7052 0 
183 2 18.7543 -25.6901 0 
185 2 19.8777 -25.6759 0 
187 2 21.0014 -25.6627 0 
189 2 22.1254 -25.6504 0 
191 2 23.2498 -25.6388 0 
193 2 24.3744 -25.628 0 
195 2 25.4993 -25.6179 0 
197 2 26.6245 -25.6084 0 
199 2 27.75 -25.5994 0 
202 2 -26.8739 -24.1187 0 
204 2 -25.7444 -24.0828 0 
206 2 -24.6148 -24.0464 0 
208 1 -23.4844 -24.0088 0 
210 1 -22.3542 -23.9694 0 
212 1 -21.2239 -23.9308 0 
214 1 -20.0949 -23.8917 0 
216 1 -18.9656 -23.8518 0 
219 1 -17.2514 -24.7671 0 
218 1 -17.8353 -23.8111 0 
221 1 -16.123 -24.7264 0 
220 1 -16.7061 -23.7694 0 
222 1 -15.5764 -23.7289 0 
223 1 -14.9937 -24.6853 0 
224 1 -14.4468 -23.6871 0 
225 1 -13.865 -24.6446 0 
227 1 -12.7365 -24.6035 0 
229 1 -11.6076 -24.5621 0 
231 1 -10.4802 -24.5185 0 
233 1 -9.35366 -24.476 0 
235 1 -8.22746 -24.4335 0 
237 1 -7.10146 -24.3911 0 
239 1 -5.97591 -24.3496 0 
241 1 -4.85091 -24.3068 0 
243 1 -3.72644 -24.2662 0 
245 1 -2.60282 -24.2265 0 
247 1 -1.47946 -24.1874 0 
249 1 -0.356173 -24.1493 0 
251 1 0.76653 -24.1122 0 
253 1 1.88872 -24.0761 0 
255 1 3.0106 -24.0422 0 
257 1 4.13274 -24.0096 0 
259 1 5.25511 -23.9781 0 
261 1 6.37724 -23.9482 0 
263 1 7.49905 -23.9209 0 
265 1 8.62175 -23.8938 0 
267 1 9.7441 -23.8682 0 
269 1 10.866 -23.8447 0 
271 1 11.9883 -23.8227 0 
172 1 12.5648 -24.7996 0 
273 1 13.1113 -23.8023 0 
174 1 13.6872 -24.7796 0 
275 1 14.2342 -23.7826 0 
176 1 14.8095 -24.7606 0 
277 1 15.357 -23.764 0 
178 1 15.9318 -24.7426 0 
279 1 16.4801 -23.7476 0 
180 1 17.0549 -24.7264 0 
281 1 17.6036 -23.7318 0 
182 1 18.1785 -24.7108 0 
283 1 18.7278 -23.7164 0 
184 1 19.3022 -24.6964 0 
285 1 19.8519 -23.7022 0 
186 1 20.4261 -24.6824 0 
287 1 20.976 -23.6888 0 
188 1 21.55 -24.6696 0 
289 1 22.1 -23.6766 0 
190 1 22.6743 -24.6573 0 
291 1 23.2246 -23.6651 0 
192 1 23.799 -24.6468 0 
293 1 24.3488 -23.6541 0 
194 1 24.9235 -24.6362 0 
295 2 25.4729 -23.6443 0 
196 2 26.0488 -24.6264 0 
198 2 27.1745 -24.6176 0 
200 2 28.3003 -24.6093 0 
301 2 -27.4598 -23.1644 0 
303 2 -26.3303 -23.1287 0 
305 2 -25.2007 -23.0924 0 
307 2 -24.071 -23.0555 0 
309 1 -22.9409 -23.0155 0 
311 1 -21.8096 -22.9765 0 
313 1 -20.6791 -22.9362 0 
315 1 -19.5495 -22.8965 0 
317 1 -18.4193 -22.8567 0 
319 1 -17.29 -22.8139 0 
321 1 -16.1603 -22.7724 0 
323 1 -15.0305 -22.731 0 
226 1 -13.3183 -23.6454 0 
325 1 -13.9015 -22.6882 0 
327 1 -12.7718 -22.6467 0 
228 1 -12.1898 -23.6046 0 
329 1 -11.6441 -22.6025 0 
230 1 -11.0628 -23.5604 0 
331 1 -10.5172 -22.5573 0 
232 1 -9.93578 -23.5162 0 
333 1 -9.39054 -22.5135 0 
234 1 -8.809 -23.4733 0 
236 1 -7.68279 -23.43 0 
238 1 -6.55704 -23.3875 0 
240 1 -5.43257 -23.3441 0 
242 1 -4.30804 -23.3015 0 
244 1 -3.18396 -23.2607 0 
246 1 -2.06024 -23.2211 0 
248 1 -0.93699 -23.1816 0 
250 1 0.185777 -23.1432 0 
252 1 1.30798 -23.1057 0 
254 1 2.43044 -23.0706 0 
256 1 3.55281 -23.0377 0 
258 1 4.67539 -23.006 0 
260 1 5.79766 -22.9746 0 
262 1 6.92039 -22.9463 0 
264 1 8.04294 -22.9193 0 
266 1 9.16534 -22.8926 0 
268 1 10.288 -22.8678 0 
270 1 11.4106 -22.8456 0 
272 1 12.5335 -22.8247 0 
274 1 13.6566 -22.8051 0 
276 1 14.7803 -22.7859 0 
278 1 15.9036 -22.7682 0 
280 1 17.0268 -22.7524 0 
282 1 18.1502 -22.7371 0 
284 1 19.2748 -22.722 0 
286 1 20.399 -22.7082 0 
288 1 21.5229 -22.6958 0 
290 1 22.6478 -22.6841 0 
292 1 23.7732 -22.6727 0 
294 1 24.8985 -22.6625 0 
297 2 26.5987 -23.6355 0 
296 2 26.0228 -22.6533 0 
299 2 27.7248 -23.6273 0 
298 2 27.149 -22.6452 0 
300 2 28.2755 -22.6376 0 
302 2 -26.9167 -22.1747 0 
304 2 -25.7871 -22.1385 0 
306 2 -24.6574 -22.1018 0 
308 1 -23.5271 -22.0622 0 
310 1 -22.3963 -22.0228 0 
312 1 -21.2649 -21.9824 0 
314 1 -20.1342 -21.9414 0 
316 1 -19.0039 -21.9019 0 
318 1 -17.8744 -21.8598 0 
320 1 -16.7446 -21.8174 0 
322 1 -15.614 -21.7754 0 
324 1 -14.4846 -21.7318 0 
326 1 -13.3551 -21.6901 0 
328 1 -12.2267 -21.6455 0 
330 1 -11.0988 -21.5993 0 
332 1 -9.97097 -21.5544 0 
334 1 -8.84489 -21.5088 0 
335 1 -8.2648 -22.4694 0 
336 1 -7.719 -21.4651 0 
337 1 -7.13867 -22.4262 0 
338 1 -6.59359 -21.4209 0 
339 1 -6.01371 -22.3823 0 
340 1 -5.46902 -21.3762 0 
341 1 -4.88907 -22.3385 0 
343 1 -3.76444 -22.296 0 
345 1 -2.64019 -22.2549 0 
347 1 -1.51703 -22.2144 0 
349 1 -0.39404 -22.1745 0 
351 1 0.728557 -22.1359 0 
353 1 1.8509 -22.1 0 
355 1 2.97343 -22.0656 0 
357 1 4.09586 -22.0336 0 
359 1 5.21843 -22.0016 0 
361 1 6.34101 -21.9721 0 
363 1 7.46306 -21.9443 0 
365 1 8.58593 -21.9173 0 
367 1 9.70899 -21.8919 0 
369 1 10.8323 -21.8685 0 
371 1 11.9558 -21.8472 0 
373 1 13.0792 -21.8267 0 
375 1 14.2027 -21.8078 0 
377 1 15.3265 -21.7891 0 
379 1 16.4503 -21.773 0 
381 1 17.5739 -21.7569 0 
383 1 18.6978 -21.7426 0 
385 1 19.8223 -21.728 0 
387 1 20.9464 -21.7146 0 
389 1 22.071 -21.7033 0 
391 1 23.1963 -21.6915 0 
393 1 24.3219 -21.6812 0 
395 2 25.4466 -21.6709 0 
397 2 26.573 -21.6629 0 
399 2 27.6998 -21.6554 0 
401 2 -27.5037 -21.2208 0 
403 2 -26.3741 -21.1849 0 
402 2 -26.9617 -20.2313 0 
405 2 -25.2445 -21.1483 0 
404 2 -25.8321 -20.1949 0 
407 2 -24.1147 -21.111 0 
409 1 -22.9831 -21.0696 0 
411 1 -21.8519 -21.0296 0 
413 1 -20.7206 -20.9881 0 
415 1 -19.5897 -20.9473 0 
417 1 -18.4594 -20.9059 0 
419 1 -17.3295 -20.8631 0 
421 1 -16.1991 -20.8211 0 
423 1 -15.069 -20.7767 0 
425 1 -13.9389 -20.7338 0 
427 1 -12.8107 -20.6894 0 
429 1 -11.6824 -20.6431 0 
431 1 -10.5537 -20.5969 0 
433 1 -9.4264 -20.55 0 
435 1 -8.29946 -20.5047 0 
437 1 -7.17388 -20.4599 0 
439 1 -6.04893 -20.4141 0 
342 1 -4.34458 -21.3323 0 
441 1 -4.92431 -20.3685 0 
344 1 -3.22047 -21.2897 0 
443 1 -3.80026 -20.3246 0 
346 1 -2.09687 -21.2474 0 
445 1 -2.67742 -20.2816 0 
348 1 -0.97418 -21.2067 0 
447 1 -1.55453 -20.2389 0 
350 1 0.148652 -21.1674 0 
352 1 1.27143 -21.1297 0 
354 1 2.39391 -21.0948 0 
356 1 3.51668 -21.0605 0 
358 1 4.63915 -21.0288 0 
360 1 5.76253 -20.9981 0 
362 1 6.88489 -20.9689 0 
364 1 8.00732 -20.9424 0 
366 1 9.13044 -20.9158 0 
368 1 10.2539 -20.8919 0 
370 1 11.3778 -20.8698 0 
372 1 12.5016 -20.8486 0 
374 1 13.6252 -20.8286 0 
376 1 14.7491 -20.8105 0 
378 1 15.8731 -20.7937 0 
380 1 16.9972 -20.7773 0 
382 1 18.1219 -20.7621 0 
384 1 19.2461 -20.7481 0 
386 1 20.3704 -20.734 0 
388 1 21.4955 -20.7221 0 
390 1 22.6208 -20.7106 0 
392 1 23.7465 -20.6997 0 
394 1 24.8721 -20.6894 0 
396 2 25.9969 -20.6804 0 
398 2 27.1238 -20.673 0 
400 2 28.251 -20.6661 0 
501 2 -27.5497 -19.2779 0 
503 2 -26.4202 -19.2417 0 
505 2 -25.2906 -19.2049 0 
406 2 -24.7023 -20.1579 0 
507 2 -24.1608 -19.1673 0 
408 1 -23.5709 -20.1181 0 
509 1 -23.0285 -19.1249 0 
410 1 -22.4396 -20.0769 0 
511 1 -21.8964 -19.0837 0 
412 1 -21.3083 -20.0358 0 
513 1 -20.7641 -19.0423 0 
414 1 -20.1767 -19.9945 0 
416 1 -19.045 -19.9528 0 
418 1 -17.9142 -19.9093 0 
420 1 -16.7841 -19.8663 0 
422 1 -15.6546 -19.8226 0 
424 1 -14.5241 -19.7791 0 
426 1 -13.3948 -19.7335 0 
428 1 -12.2664 -19.6873 0 
430 1 -11.1376 -19.641 0 
432 1 -10.0099 -19.5928 0 
434 1 -8.8823 -19.5461 0 
436 1 -7.75601 -19.4994 0 
438 1 -6.63044 -19.453 0 
440 1 -5.50571 -19.4059 0 
442 1 -4.38098 -19.3605 0 
444 1 -3.25727 -19.3158 0 
446 1 -2.13435 -19.2725 0 
448 1 -1.01115 -19.2306 0 
449 1 -0.431548 -20.1991 0 
450 1 0.111489 -19.1903 0 
451 1 0.691386 -20.1604 0 
452 1 1.23479 -19.1528 0 
453 1 1.8147 -20.1236 0 
454 1 2.35759 -19.1162 0 
455 1 2.93698 -20.0885 0 
456 1 3.48001 -19.0826 0 
457 1 4.05971 -20.0553 0 
459 1 5.18237 -20.0243 0 
461 1 6.30545 -19.9942 0 
463 1 7.42877 -19.9665 0 
465 1 8.55163 -19.9403 0 
467 1 9.67523 -19.915 0 
469 1 10.7987 -19.8917 0 
471 1 11.9224 -19.8708 0 
473 1 13.0464 -19.8499 0 
475 1 14.1708 -19.8318 0 
477 1 15.295 -19.814 0 
479 1 16.4188 -19.7975 0 
481 1 17.5436 -19.7817 0 
483 1 18.6682 -19.7673 0 
485 1 19.7926 -19.7538 0 
487 1 20.9183 -19.7412 0 
489 1 22.0439 -19.7296 0 
491 1 23.1695 -19.7186 0 
493 1 24.295 -19.7082 0 
495 2 25.4205 -19.6978 0 
497 2 26.5477 -19.6905 0 
499 2 27.6751 -19.6838 0 
502 2 -27.0088 -18.2886 0 
504 2 -25.8793 -18.252 0 
506 2 -24.7497 -18.2147 0 
508 1 -23.6183 -18.1745 0 
510 1 -22.4853 -18.1321 0 
512 1 -21.353 -18.0908 0 
514 1 -20.2211 -18.0485 0 
515 1 -19.6328 -19.0006 0 
516 1 -19.0894 -18.0057 0 
517 1 -18.5019 -18.9576 0 
518 1 -17.9581 -17.9619 0 
519 1 -17.3703 -18.9131 0 
520 1 -16.827 -17.916 0 
521 1 -16.2395 -18.8685 0 
523 1 -15.1089 -18.825 0 
525 1 -13.9796 -18.7788 0 
527 1 -12.8508 -18.7317 0 
529 1 -11.7218 -18.6856 0 
531 1 -10.5939 -18.6364 0 
533 1 -9.46574 -18.5885 0 
535 1 -8.33847 -18.5404 0 
537 1 -7.21238 -18.4926 0 
539 1 -6.08721 -18.4446 0 
541 1 -4.96233 -18.3977 0 
543 1 -3.83808 -18.3514 0 
545 1 -2.71429 -18.3064 0 
547 1 -1.5911 -18.2629 0 
549 1 -0.468796 -18.2209 0 
551 1 0.654325 -18.1817 0 
553 1 1.77751 -18.1438 0 
555 1 2.90025 -18.1093 0 
557 1 4.02257 -18.0756 0 
458 1 4.60234 -19.0496 0 
559 1 5.14568 -18.0442 0 
460 1 5.72551 -19.0196 0 
561 1 6.26887 -18.0146 0 
462 1 6.84853 -18.9907 0 
563 1 7.39262 -17.9865 0 
464 1 7.97149 -18.9633 0 
565 1 8.51606 -17.961 0 
466 1 9.09512 -18.9384 0 
567 1 9.63982 -17.9362 0 
468 1 10.219 -18.9139 0 
569 1 10.7643 -17.9137 0 
470 1 11.3433 -18.8923 0 
472 1 12.4674 -18.8716 0 
474 1 13.592 -18.8522 0 
476 1 14.716 -18.8344 0 
478 1 15.8402 -18.8173 0 
480 1 16.9647 -18.8016 0 
482 1 18.0899 -18.7864 0 
484 1 19.2151 -18.7731 0 
486 1 20.3407 -18.7608 0 
488 1 21.4668 -18.7487 0 
490 1 22.5933 -18.7378 0 
492 1 23.7193 -18.727 0 
494 1 24.8451 -18.7169 0 
496 2 25.9714 -18.7078 0 
498 2 27.0991 -18.7012 0 
500 2 28.2271 -18.6951 0 
601 2 -27.5979 -17.3354 0 
603 2 -26.4686 -17.2992 0 
605 2 -25.3391 -17.2621 0 
607 2 -24.2094 -17.2244 0 
609 1 -23.0764 -17.1825 0 
611 1 -21.9432 -17.1397 0 
613 1 -20.8112 -17.0973 0 
615 1 -19.6794 -17.0546 0 
617 1 -18.5475 -17.0106 0 
619 1 -17.4161 -16.9651 0 
522 1 -15.6961 -17.8713 0 
621 1 -16.2845 -16.9187 0 
524 1 -14.5665 -17.825 0 
623 1 -15.1538 -16.8717 0 
526 1 -13.4368 -17.7773 0 
625 1 -14.0238 -16.8239 0 
528 1 -12.3068 -17.7304 0 
627 1 -12.8932 -16.7763 0 
530 1 -11.1783 -17.6812 0 
532 1 -10.0497 -17.6316 0 
534 1 -8.9218 -17.5828 0 
536 1 -7.7952 -17.5332 0 
538 1 -6.66944 -17.4841 0 
540 1 -5.54429 -17.4355 0 
542 1 -4.41957 -17.3878 0 
544 1 -3.29581 -17.3411 0 
546 1 -2.17236 -17.2962 0 
548 1 -1.04928 -17.2523 0 
550 1 0.0731755 -17.2114 0 
552 1 1.1956 -17.1723 0 
554 1 2.31891 -17.1356 0 
556 1 3.44186 -17.1013 0 
558 1 4.56482 -17.0689 0 
560 1 5.68799 -17.0386 0 
562 1 6.81204 -17.0104 0 
564 1 7.93649 -16.9831 0 
566 1 9.06069 -16.9586 0 
568 1 10.1853 -16.9352 0 
571 1 11.8891 -17.8927 0 
570 1 11.3103 -16.9139 0 
573 1 13.0135 -17.8729 0 
572 1 12.4352 -16.8932 0 
575 1 14.1378 -17.8542 0 
574 1 13.5597 -16.8747 0 
577 1 15.262 -17.8371 0 
576 1 14.6845 -16.8564 0 
579 1 16.3868 -17.821 0 
578 1 15.8094 -16.8404 0 
581 1 17.5118 -17.8062 0 
580 1 16.9344 -16.8251 0 
583 1 18.6378 -17.7919 0 
582 1 18.0598 -16.8113 0 
585 1 19.7635 -17.7799 0 
584 1 19.1861 -16.7982 0 
587 1 20.8898 -17.7679 0 
586 1 20.3126 -16.7871 0 
589 1 22.0162 -17.757 0 
588 1 21.4395 -16.7756 0 
591 1 23.1428 -17.7461 0 
590 1 22.5655 -16.7648 0 
593 1 24.2693 -17.7353 0 
592 1 23.6919 -16.7543 0 
595 2 25.3948 -17.725 0 
594 1 24.819 -16.7436 0 
596 2 25.9465 -16.7357 0 
597 2 26.5229 -17.7186 0 
598 2 27.0751 -16.7299 0 
599 2 27.6512 -17.7126 0 
600 2 28.2039 -16.7246 0 
602 2 -27.0583 -16.3463 0 
604 2 -25.929 -16.3096 0 
606 2 -24.7995 -16.2721 0 
608 1 -23.668 -16.2323 0 
610 1 -22.5359 -16.1902 0 
612 1 -21.4031 -16.1468 0 
614 1 -20.2702 -16.1039 0 
616 1 -19.1384 -16.0597 0 
618 1 -18.0068 -16.0144 0 
620 1 -16.8753 -15.9679 0 
622 1 -15.7437 -15.9203 0 
624 1 -14.6122 -15.8717 0 
626 1 -13.4812 -15.8236 0 
628 1 -12.3514 -15.7731 0 
629 1 -11.7642 -16.7266 0 
630 1 -11.2216 -15.7227 0 
631 1 -10.6355 -16.6769 0 
632 1 -10.0931 -15.672 0 
633 1 -9.50689 -16.6264 0 
634 1 -8.96537 -15.6191 0 
635 1 -8.38012 -16.5755 0 
637 1 -7.25349 -16.5252 0 
639 1 -6.12772 -16.4747 0 
641 1 -5.00225 -16.4254 0 
643 1 -3.8785 -16.3764 0 
645 1 -2.75527 -16.3297 0 
647 1 -1.63245 -16.285 0 
649 1 -0.509518 -16.2421 0 
651 1 0.613083 -16.201 0 
653 1 1.73609 -16.163 0 
655 1 2.85971 -16.1271 0 
657 1 3.98295 -16.0938 0 
659 1 5.10661 -16.0628 0 
661 1 6.23078 -16.0341 0 
663 1 7.3553 -16.0063 0 
665 1 8.48 -15.9806 0 
667 1 9.60535 -15.9568 0 
669 1 10.7309 -15.9348 0 
671 1 11.856 -15.9137 0 
673 1 12.9812 -15.8943 0 
675 1 14.1063 -15.8765 0 
677 1 15.2317 -15.8595 0 
679 1 16.3564 -15.8441 0 
681 1 17.4825 -15.83 0 
683 1 18.6093 -15.8169 0 
685 1 19.736 -15.8056 0 
687 1 20.8625 -15.7948 0 
689 1 21.9895 -15.7833 0 
691 1 23.1161 -15.773 0 
693 1 24.2429 -15.7631 0 
695 2 25.3699 -15.7527 0 
697 2 26.4989 -15.7471 0 
699 2 27.6281 -15.742 0 
701 2 -27.6483 -15.3934 0 
703 2 -26.5193 -15.357 0 
705 2 -25.3901 -15.3199 0 
707 2 -24.2607 -15.282 0 
709 1 -23.128 -15.2401 0 
711 1 -21.9959 -15.1972 0 
713 1 -20.8624 -15.154 0 
715 1 -19.7303 -15.1091 0 
717 1 -18.5991 -15.0641 0 
719 1 -17.4666 -15.0179 0 
721 1 -16.3348 -14.9702 0 
723 1 -15.203 -14.9219 0 
725 1 -14.0711 -14.8727 0 
727 1 -12.9409 -14.8217 0 
729 1 -11.8105 -14.7703 0 
731 1 -10.6805 -14.718 0 
733 1 -9.55205 -14.6649 0 
636 1 -7.83813 -15.5676 0 
735 1 -8.42403 -14.6115 0 
638 1 -6.71214 -15.5151 0 
737 1 -7.29768 -14.557 0 
640 1 -5.5866 -15.4645 0 
739 1 -6.17128 -14.5044 0 
642 1 -4.46211 -15.4133 0 
644 1 -3.33803 -15.3646 0 
646 1 -2.21459 -15.3175 0 
648 1 -1.09228 -15.2729 0 
650 1 0.030179 -15.23 0 
652 1 1.15341 -15.1906 0 
654 1 2.27691 -15.1539 0 
656 1 3.40059 -15.119 0 
658 1 4.52423 -15.0875 0 
660 1 5.64865 -15.0577 0 
662 1 6.7739 -15.0298 0 
664 1 7.89912 -15.0024 0 
666 1 9.02456 -14.9783 0 
668 1 10.1501 -14.9559 0 
670 1 11.2756 -14.9343 0 
672 1 12.4016 -14.9141 0 
674 1 13.5277 -14.8957 0 
676 1 14.6532 -14.8789 0 
678 1 15.7786 -14.8628 0 
680 1 16.9048 -14.849 0 
682 1 18.0315 -14.8357 0 
684 1 19.1585 -14.8236 0 
686 1 20.2852 -14.8129 0 
688 1 21.4122 -14.8023 0 
690 1 22.5401 -14.7916 0 
692 1 23.6674 -14.782 0 
694 1 24.7944 -14.7722 0 
696 2 25.9226 -14.7642 0 
698 2 27.0521 -14.7592 0 
700 2 28.1818 -14.7547 0 
702 2 -27.11 -14.4044 0 
801 2 -27.7009 -13.4516 0 
704 2 -25.9811 -14.3676 0 
803 2 -26.5724 -13.4152 0 
706 2 -24.852 -14.3301 0 
805 2 -25.4437 -13.3781 0 
708 1 -23.7204 -14.2901 0 
807 2 -24.3146 -13.3401 0 
710 1 -22.5888 -14.2473 0 
809 1 -23.1826 -13.2979 0 
712 1 -21.4563 -14.2049 0 
714 1 -20.3241 -14.1598 0 
716 1 -19.1925 -14.1141 0 
718 1 -18.0601 -14.0695 0 
720 1 -16.9275 -14.0213 0 
722 1 -15.7954 -13.9731 0 
724 1 -14.6631 -13.9239 0 
726 1 -13.5322 -13.8715 0 
728 1 -12.4014 -13.8197 0 
730 1 -11.2708 -13.7663 0 
732 1 -10.1406 -13.7117 0 
734 1 -9.01139 -13.6573 0 
736 1 -7.88405 -13.6011 0 
738 1 -6.75688 -13.5461 0 
740 1 -5.6314 -13.4911 0 
741 1 -5.04643 -14.4516 0 
742 1 -4.50594 -13.4378 0 
743 1 -3.92205 -14.4007 0 
744 1 -3.38175 -13.3867 0 
745 1 -2.79804 -14.3519 0 
746 1 -2.25925 -13.3367 0 
747 1 -1.67526 -14.3041 0 
749 1 -0.553026 -14.2592 0 
751 1 0.570012 -14.2179 0 
753 1 1.69289 -14.1807 0 
755 1 2.81674 -14.1452 0 
757 1 3.94118 -14.112 0 
759 1 5.06589 -14.0813 0 
761 1 6.19133 -14.0527 0 
763 1 7.31649 -14.0255 0 
765 1 8.44261 -14.0001 0 
767 1 9.56854 -13.9767 0 
769 1 10.6943 -13.955 0 
771 1 11.8204 -13.9343 0 
773 1 12.9471 -13.9154 0 
775 1 14.0741 -13.8977 0 
777 1 15.2006 -13.8817 0 
779 1 16.3273 -13.8676 0 
781 1 17.4539 -13.8541 0 
783 1 18.5812 -13.842 0 
785 1 19.7088 -13.8308 0 
787 1 20.8357 -13.8201 0 
789 1 21.9632 -13.8101 0 
791 1 23.0916 -13.8008 0 
793 1 24.2192 -13.791 0 
795 2 25.3462 -13.7811 0 
797 2 26.4761 -13.7764 0 
799 2 27.6062 -13.772 0 
802 2 -27.164 -12.4626 0 
804 2 -26.0357 -12.4259 0 
806 2 -24.9071 -12.3884 0 
808 1 -23.7766 -12.3492 0 
810 1 -22.6452 -12.3059 0 
811 1 -22.0507 -13.2553 0 
812 1 -21.5141 -12.2624 0 
813 1 -20.9193 -13.2116 0 
814 1 -20.383 -12.2188 0 
815 1 -19.787 -13.166 0 
816 1 -19.2501 -12.1736 0 
817 1 -18.6542 -13.1209 0 
818 1 -18.1176 -12.1261 0 
819 1 -17.5224 -13.074 0 
821 1 -16.3895 -13.0249 0 
823 1 -15.2571 -12.9758 0 
825 1 -14.1256 -12.9233 0 
827 1 -12.993 -12.8701 0 
829 1 -11.8617 -12.8165 0 
831 1 -10.731 -12.7606 0 
833 1 -9.60109 -12.7046 0 
835 1 -8.47295 -12.6474 0 
837 1 -7.34504 -12.591 0 
839 1 -6.21845 -12.5328 0 
841 1 -5.0922 -12.4773 0 
843 1 -3.96716 -12.4227 0 
845 1 -2.84361 -12.3705 0 
748 1 -1.13685 -13.2898 0 
847 1 -1.72047 -12.3211 0 
849 1 -0.597759 -12.2755 0 
750 1 -0.013405 -13.2464 0 
851 1 0.525417 -12.2335 0 
752 1 1.11029 -13.2063 0 
853 1 1.64928 -12.1955 0 
754 1 2.23365 -13.1711 0 
756 1 3.35804 -13.1369 0 
758 1 4.48278 -13.1053 0 
760 1 5.60804 -13.076 0 
762 1 6.73399 -13.0482 0 
764 1 7.86011 -13.0229 0 
766 1 8.98679 -12.9979 0 
768 1 10.1131 -12.976 0 
770 1 11.2399 -12.9547 0 
772 1 12.3676 -12.9351 0 
774 1 13.4953 -12.9175 0 
776 1 14.6225 -12.9009 0 
778 1 15.7497 -12.8863 0 
780 1 16.8773 -12.8724 0 
782 1 18.0049 -12.8602 0 
784 1 19.1327 -12.8493 0 
786 1 20.2607 -12.838 0 
788 1 21.3885 -12.8278 0 
790 1 22.5165 -12.8189 0 
792 1 23.6442 -12.8094 0 
794 1 24.772 -12.8004 0 
796 2 25.9 -12.7934 0 
798 2 27.0306 -12.7893 0 
800 2 28.1612 -12.7854 0 
901 2 -27.7557 -11.5099 0 
903 2 -26.6279 -11.4735 0 
905 2 -25.4997 -11.4364 0 
907 2 -24.3713 -11.3985 0 
909 1 -23.2409 -11.3576 0 
911 1 -22.1095 -11.314 0 
913 1 -20.978 -11.2699 0 
915 1 -19.8464 -11.2259 0 
917 1 -18.7143 -11.1792 0 
820 1 -16.9853 -12.0782 0 
919 1 -17.5812 -11.1311 0 
822 1 -15.852 -12.0281 0 
921 1 -16.4482 -11.0819 0 
824 1 -14.7198 -11.9759 0 
923 1 -15.316 -11.0295 0 
826 1 -13.5869 -11.9231 0 
828 1 -12.4548 -11.868 0 
830 1 -11.3237 -11.8121 0 
832 1 -10.1931 -11.754 0 
834 1 -9.0641 -11.6953 0 
836 1 -7.93508 -11.6372 0 
838 1 -6.80763 -11.5774 0 
840 1 -5.68048 -11.5191 0 
842 1 -4.55482 -11.4612 0 
844 1 -3.43093 -11.4056 0 
846 1 -2.30738 -11.3538 0 
848 1 -1.18396 -11.3056 0 
850 1 -0.060089 -11.2613 0 
852 1 1.06401 -11.2206 0 
855 1 2.77327 -12.161 0 
854 1 2.18808 -11.1841 0 
857 1 3.89796 -12.1284 0 
856 1 3.31295 -11.1513 0 
859 1 5.02254 -12.0987 0 
858 1 4.43851 -11.1201 0 
861 1 6.14873 -12.0714 0 
860 1 5.56455 -11.0933 0 
863 1 7.2755 -12.0447 0 
862 1 6.6912 -11.0667 0 
865 1 8.40249 -12.0203 0 
864 1 7.81861 -11.0417 0 
867 1 9.53036 -11.997 0 
869 1 10.6578 -11.9758 0 
871 1 11.7858 -11.9554 0 
873 1 12.914 -11.9375 0 
875 1 14.042 -11.9207 0 
877 1 15.1698 -11.9048 0 
879 1 16.2977 -11.891 0 
881 1 17.426 -11.8781 0 
883 1 18.5544 -11.867 0 
885 1 19.6827 -11.8564 0 
887 1 20.8113 -11.8461 0 
889 1 21.9397 -11.8367 0 
891 1 23.0679 -11.8275 0 
893 1 24.1964 -11.8188 0 
895 2 25.3239 -11.8103 0 
897 2 26.4549 -11.8064 0 
899 2 27.586 -11.8028 0 
902 2 -27.2202 -10.5209 0 
904 2 -26.0925 -10.4842 0 
906 2 -24.9646 -10.4468 0 
908 1 -23.8354 -10.4073 0 
910 1 -22.7058 -10.3661 0 
912 1 -21.5751 -10.3223 0 
914 1 -20.4434 -10.2775 0 
916 1 -19.3115 -10.232 0 
918 1 -18.1789 -10.1849 0 
920 1 -17.0461 -10.1362 0 
922 1 -15.9139 -10.0847 0 
924 1 -14.7804 -10.0328 0 
925 1 -14.1827 -10.9774 0 
926 1 -13.647 -9.97766 0 
927 1 -13.0501 -10.922 0 
928 1 -12.5139 -9.92026 0 
929 1 -11.9178 -10.8651 0 
930 1 -11.3811 -9.86042 0 
931 1 -10.7866 -10.8065 0 
933 1 -9.6557 -10.7453 0 
935 1 -8.52522 -10.6852 0 
937 1 -7.39668 -10.6232 0 
939 1 -6.26924 -10.5621 0 
941 1 -5.14367 -10.5022 0 
943 1 -4.01882 -10.4428 0 
945 1 -2.89464 -10.3875 0 
947 1 -1.77059 -10.3361 0 
949 1 -0.646327 -10.2894 0 
951 1 0.478112 -10.2468 0 
953 1 1.60308 -10.2078 0 
955 1 2.72836 -10.1735 0 
957 1 3.85364 -10.1426 0 
959 1 4.98015 -10.1143 0 
961 1 6.10764 -10.0884 0 
963 1 7.23577 -10.0626 0 
965 1 8.36373 -10.0385 0 
866 1 8.94674 -11.0182 0 
967 1 9.49263 -10.0163 0 
868 1 10.0751 -10.9961 0 
969 1 10.6221 -9.99672 0 
870 1 11.2038 -10.9766 0 
971 1 11.7516 -9.97853 0 
872 1 12.3328 -10.9575 0 
973 1 12.8815 -9.96031 0 
874 1 13.4613 -10.9408 0 
975 1 14.0108 -9.94457 0 
876 1 14.5902 -10.9246 0 
977 1 15.1402 -9.92892 0 
878 1 15.7193 -10.9092 0 
979 1 16.2699 -9.91446 0 
880 1 16.8482 -10.896 0 
981 1 17.3993 -9.90227 0 
882 1 17.9773 -10.8846 0 
983 1 18.5284 -9.89117 0 
884 1 19.1057 -10.8738 0 
985 1 19.6574 -9.88153 0 
886 1 20.2344 -10.8643 0 
987 1 20.7866 -9.87253 0 
888 1 21.3634 -10.855 0 
890 1 22.4924 -10.8458 0 
989 1 21.9159 -9.86414 0 
892 1 23.6213 -10.8374 0 
991 1 23.0454 -9.85562 0 
894 1 24.7502 -10.8288 0 
993 1 24.1745 -9.84789 0 
896 2 25.8793 -10.8234 0 
995 2 25.3037 -9.84035 0 
898 2 27.0108 -10.8201 0 
997 2 26.4357 -9.83726 0 
900 2 28.1423 -10.817 0 
999 2 27.5677 -9.8344 0 
1001 2 -27.8125 -9.56805 0 
1003 2 -26.6854 -9.5318 0 
1005 2 -25.5581 -9.49477 0 
1007 2 -24.4305 -9.45693 0 
1009 1 -23.3004 -9.41628 0 
1011 1 -22.1711 -9.37397 0 
1013 1 -21.0409 -9.3304 0 
1015 1 -19.9095 -9.28494 0 
1017 1 -18.7777 -9.23869 0 
1019 1 -17.6454 -9.19101 0 
1021 1 -16.5127 -9.14046 0 
1023 1 -15.3796 -9.08877 0 
1025 1 -14.2466 -9.03442 0 
1027 1 -13.1128 -8.97683 0 
1029 1 -11.9792 -8.917 0 
932 1 -10.2499 -9.79852 0 
1031 1 -10.8461 -8.85376 0 
934 1 -9.11863 -9.73621 0 
1033 1 -9.71337 -8.79012 0 
936 1 -7.98904 -9.67204 0 
1035 1 -8.58295 -8.72406 0 
938 1 -6.86026 -9.60833 0 
940 1 -5.73269 -9.54472 0 
942 1 -4.60711 -9.48254 0 
944 1 -3.48256 -9.42285 0 
946 1 -2.35857 -9.36778 0 
948 1 -1.23423 -9.31718 0 
950 1 -0.109647 -9.2719 0 
952 1 1.01532 -9.23217 0 
954 1 2.1409 -9.19634 0 
956 1 3.26721 -9.16438 0 
958 1 4.39459 -9.13579 0 
960 1 5.52263 -9.10838 0 
962 1 6.651 -9.08363 0 
964 1 7.77994 -9.0588 0 
966 1 8.90969 -9.03686 0 
968 1 10.0398 -9.01653 0 
970 1 11.1695 -8.99811 0 
972 1 12.299 -8.98066 0 
974 1 13.4295 -8.96344 0 
976 1 14.5591 -8.94845 0 
978 1 15.6897 -8.93406 0 
980 1 16.8201 -8.92048 0 
982 1 17.9501 -8.90931 0 
984 1 19.08 -8.89942 0 
986 1 20.2103 -8.89049 0 
988 1 21.3407 -8.88181 0 
990 1 22.4702 -8.87383 0 
992 1 23.5999 -8.86624 0 
994 1 24.7299 -8.85917 0 
996 2 25.8608 -8.85435 0 
998 2 26.9933 -8.85174 0 
1000 2 28.1257 -8.84931 0 
1002 2 -27.2783 -8.57905 0 
1101 2 -27.8711 -7.62598 0 
1004 2 -26.1516 -8.54247 0 
1103 2 -26.7449 -7.58983 0 
1006 2 -25.0246 -8.50509 0 
1105 2 -25.6186 -7.5529 0 
1008 1 -23.896 -8.46631 0 
1107 2 -24.492 -7.51516 0 
1010 1 -22.7672 -8.42441 0 
1012 1 -21.6379 -8.38218 0 
1014 1 -20.5084 -8.3387 0 
1016 1 -19.3772 -8.29283 0 
1018 1 -18.2458 -8.24545 0 
1020 1 -17.1137 -8.19667 0 
1022 1 -15.9805 -8.14495 0 
1024 1 -14.8477 -8.0912 0 
1026 1 -13.7141 -8.03509 0 
1028 1 -12.5798 -7.97527 0 
1030 1 -11.4462 -7.91185 0 
1032 1 -10.312 -7.8476 0 
1034 1 -9.17954 -7.77926 0 
1036 1 -8.04778 -7.71047 0 
1037 1 -7.4531 -8.6577 0 
1038 1 -6.91751 -7.63956 0 
1039 1 -6.32461 -8.59066 0 
1041 1 -5.19721 -8.52399 0 
1043 1 -4.07161 -8.46041 0 
1045 1 -2.94781 -8.40059 0 
1047 1 -1.82402 -8.34659 0 
1049 1 -0.698596 -8.29848 0 
1051 1 0.427475 -8.25644 0 
1053 1 1.55369 -8.21881 0 
1055 1 2.6801 -8.18542 0 
1057 1 3.80797 -8.15674 0 
1059 1 4.93688 -8.12888 0 
1061 1 6.06684 -8.10338 0 
1063 1 7.19638 -8.07961 0 
1065 1 8.32669 -8.05703 0 
1067 1 9.457 -8.03655 0 
1069 1 10.5878 -8.01765 0 
1071 1 11.7184 -7.99957 0 
1073 1 12.8492 -7.98287 0 
1075 1 13.9798 -7.96662 0 
1077 1 15.1104 -7.95342 0 
1079 1 16.2413 -7.9395 0 
1081 1 17.3724 -7.92718 0 
1083 1 18.503 -7.91751 0 
1085 1 19.6335 -7.9084 0 
1087 1 20.7644 -7.90013 0 
1089 1 21.8952 -7.89152 0 
1091 1 23.0252 -7.88416 0 
1093 1 24.1555 -7.87768 0 
1095 2 25.2861 -7.87134 0 
1097 2 26.419 -7.86899 0 
1099 2 27.5519 -7.8668 0 
1102 2 -27.3381 -6.63684 0 
1104 2 -26.2124 -6.60035 0 
1106 2 -25.0865 -6.56307 0 
1108 1 -23.9601 -6.52433 0 
1109 1 -23.3643 -7.47504 0 
1110 1 -22.8328 -6.48442 0 
1111 1 -22.2352 -7.43323 0 
1112 1 -21.7042 -6.44229 0 
1113 1 -21.1063 -7.39057 0 
1114 1 -20.5755 -6.39869 0 
1115 1 -19.9773 -7.34703 0 
1116 1 -19.4468 -6.3544 0 
1117 1 -18.8468 -7.30016 0 
1119 1 -17.7151 -7.25215 0 
1121 1 -16.5829 -7.20199 0 
1123 1 -15.4504 -7.14841 0 
1125 1 -14.3175 -7.09364 0 
1127 1 -13.1835 -7.03552 0 
1129 1 -12.0493 -6.97212 0 
1131 1 -10.9145 -6.90767 0 
1133 1 -9.78039 -6.83863 0 
1135 1 -8.64639 -6.76682 0 
1137 1 -7.51452 -6.69327 0 
1139 1 -6.38478 -6.61756 0 
1040 1 -5.78968 -7.56874 0 
1141 1 -5.25706 -6.5444 0 
1042 1 -4.66342 -7.50077 0 
1143 1 -4.13221 -6.47347 0 
1044 1 -3.5388 -7.43546 0 
1046 1 -2.41504 -7.37692 0 
1048 1 -1.29011 -7.32602 0 
1050 1 -0.164104 -7.2809 0 
1052 1 0.96254 -7.24164 0 
1054 1 2.09 -7.20682 0 
1056 1 3.21855 -7.17646 0 
1058 1 4.34793 -7.14882 0 
1060 1 5.47917 -7.12369 0 
1062 1 6.61 -7.0997 0 
1064 1 7.74119 -7.07702 0 
1066 1 8.87235 -7.05592 0 
1068 1 10.004 -7.03718 0 
1070 1 11.1356 -7.01855 0 
1072 1 12.2676 -7.00187 0 
1074 1 13.3994 -6.98565 0 
1076 1 14.5308 -6.9712 0 
1078 1 15.6615 -6.95818 0 
1080 1 16.793 -6.94569 0 
1082 1 17.9251 -6.93508 0 
1084 1 19.0565 -6.92601 0 
1086 1 20.1874 -6.91757 0 
1088 1 21.3185 -6.90994 0 
1090 1 22.4503 -6.90231 0 
1092 1 23.5819 -6.89569 0 
1094 1 24.7132 -6.88992 0 
1096 2 25.8451 -6.88616 0 
1098 2 26.9784 -6.88422 0 
1100 2 28.1116 -6.88241 0 
1201 2 -27.9311 -5.68349 0 
1203 2 -26.806 -5.64742 0 
1205 2 -25.6808 -5.61059 0 