ITEM: TIMESTEP
500
ITEM: NUMBER OF ATOMS
2850
ITEM: BOX BOUNDS ff ff pp
-42.092 42.092
-42.092 42.092
-0.280613 0.280613
ITEM: ATOMS id type xu yu zu 
1 2 -27.3398 -28.9988 0 
3 2 -26.2107 -28.9642 0 
5 2 -25.0816 -28.9291 0 
7 2 -23.9525 -28.8936 0 
9 2 -22.8235 -28.8577 0 
11 2 -21.6944 -28.8213 0 
13 2 -20.5655 -28.7844 0 
15 2 -19.4366 -28.7472 0 
17 2 -18.3079 -28.7095 0 
19 2 -17.1793 -28.6715 0 
21 2 -16.0508 -28.6331 0 
23 2 -14.9226 -28.5944 0 
25 2 -13.7947 -28.5554 0 
27 2 -12.667 -28.5163 0 
29 2 -11.5396 -28.477 0 
31 2 -10.4126 -28.4376 0 
33 2 -9.28592 -28.3982 0 
35 2 -8.15967 -28.3589 0 
37 2 -7.03386 -28.3198 0 
39 2 -5.90848 -28.281 0 
2 2 -26.7941 -28.0086 0 
4 2 -25.6649 -27.9736 0 
6 2 -24.5357 -27.9381 0 
8 2 -23.4065 -27.902 0 
10 2 -22.2773 -27.8656 0 
12 2 -21.1481 -27.8286 0 
14 2 -20.019 -27.7912 0 
16 2 -18.89 -27.7533 0 
18 2 -17.7611 -27.715 0 
20 2 -16.6324 -27.6763 0 
22 2 -15.5039 -27.6373 0 
24 2 -14.3755 -27.5979 0 
26 2 -13.2475 -27.5582 0 
28 2 -12.1197 -27.5183 0 
30 2 -10.9923 -27.4783 0 
32 2 -9.86522 -27.4382 0 
34 2 -8.73856 -27.3981 0 
36 2 -7.61233 -27.3581 0 
38 2 -6.48656 -27.3184 0 
40 2 -5.36126 -27.2789 0 
41 2 -4.78357 -28.2426 0 
42 2 -4.23645 -27.24 0 
43 2 -3.65912 -28.2046 0 
44 2 -3.11213 -27.2015 0 
45 2 -2.53513 -28.1673 0 
46 2 -1.98828 -27.1638 0 
47 2 -1.41159 -28.1307 0 
48 2 -0.8649 -27.1269 0 
49 2 -0.288464 -28.095 0 
51 2 0.834263 -28.0602 0 
53 2 1.95663 -28.0264 0 
55 2 3.07869 -27.9937 0 
57 2 4.20048 -27.9622 0 
59 2 5.32207 -27.9319 0 
61 2 6.4435 -27.9029 0 
63 2 7.56483 -27.8752 0 
65 2 8.68613 -27.8488 0 
67 2 9.80743 -27.8237 0 
69 2 10.9288 -27.8 0 
71 2 12.0503 -27.7775 0 
73 2 13.1719 -27.7563 0 
75 2 14.2937 -27.7363 0 
77 2 15.4157 -27.7174 0 
79 2 16.538 -27.6997 0 
81 2 17.6605 -27.683 0 
83 2 18.7832 -27.6673 0 
85 2 19.9063 -27.6526 0 
87 2 21.0296 -27.6388 0 
89 2 22.1532 -27.6258 0 
91 2 23.2771 -27.6136 0 
93 2 24.4012 -27.6022 0 
95 2 25.5256 -27.5914 0 
97 2 26.6503 -27.5812 0 
99 2 27.7752 -27.5717 0 
101 2 -27.378 -27.0533 0 
103 2 -26.2487 -27.0183 0 
102 2 -26.833 -26.0633 0 
105 2 -25.1194 -26.9828 0 
104 2 -25.7037 -26.0278 0 
107 2 -23.9901 -26.9468 0 
106 2 -24.5742 -25.9918 0 
109 2 -22.8607 -26.9102 0 
108 1 -23.4437 -25.9548 0 
111 2 -21.7314 -26.8732 0 
113 2 -20.6021 -26.8357 0 
115 2 -19.4729 -26.7977 0 
117 2 -18.3437 -26.7591 0 
119 2 -17.2147 -26.7202 0 
121 2 -16.0858 -26.6808 0 
123 2 -14.9572 -26.641 0 
125 2 -13.8287 -26.6009 0 
127 2 -12.7006 -26.5605 0 
129 2 -11.5727 -26.5198 0 
131 2 -10.4452 -26.479 0 
133 2 -9.31813 -26.4382 0 
135 2 -8.19146 -26.3973 0 
137 2 -7.06526 -26.3566 0 
139 2 -5.93954 -26.3162 0 
141 2 -4.81433 -26.2762 0 
143 2 -3.68963 -26.2366 0 
145 2 -2.56545 -26.1977 0 
147 2 -1.44177 -26.1596 0 
50 2 0.258046 -27.0909 0 
149 2 -0.318563 -26.1224 0 
52 2 1.38059 -27.056 0 
151 2 0.804196 -26.0862 0 
54 2 2.50279 -27.0222 0 
153 2 1.92656 -26.0512 0 
56 2 3.62468 -26.9896 0 
155 2 3.04857 -26.0174 0 
58 2 4.74633 -26.9582 0 
157 2 4.1703 -25.9849 0 
60 2 5.86779 -26.9282 0 
159 2 5.2918 -25.9538 0 
62 2 6.98913 -26.8996 0 
64 2 8.11041 -26.8723 0 
66 2 9.23169 -26.8465 0 
68 2 10.353 -26.822 0 
70 2 11.4745 -26.7989 0 
72 2 12.596 -26.7771 0 
74 2 13.7178 -26.7566 0 
76 2 14.8398 -26.7373 0 
78 2 15.962 -26.7192 0 
80 2 17.0845 -26.7023 0 
82 2 18.2073 -26.6863 0 
84 2 19.3304 -26.6714 0 
86 2 20.4538 -26.6575 0 
88 2 21.5774 -26.6444 0 
90 2 22.7014 -26.6321 0 
92 2 23.8256 -26.6206 0 
94 2 24.9501 -26.6098 0 
96 2 26.0749 -26.5996 0 
98 2 27.2 -26.5901 0 
100 2 28.3253 -26.5811 0 
201 2 -27.4179 -25.1085 0 
203 2 -26.2885 -25.0731 0 
205 2 -25.159 -25.0372 0 
207 2 -24.0295 -25.0007 0 
209 1 -22.8976 -24.9625 0 
110 1 -22.3135 -25.9173 0 
211 1 -21.7664 -24.9232 0 
112 1 -21.1841 -25.8796 0 
213 1 -20.6366 -24.8847 0 
114 1 -20.0549 -25.8414 0 
215 1 -19.5077 -24.8456 0 
116 1 -18.9258 -25.8021 0 
217 1 -18.3795 -24.8052 0 
118 1 -17.797 -25.7619 0 
120 1 -16.6685 -25.7212 0 
122 1 -15.5402 -25.6808 0 
124 1 -14.4115 -25.6408 0 
126 1 -13.2824 -25.6008 0 
128 1 -12.1534 -25.5599 0 
130 1 -11.0249 -25.5175 0 
132 1 -9.89694 -25.4744 0 
134 1 -8.76968 -25.4312 0 
136 1 -7.64326 -25.3882 0 
138 1 -6.51759 -25.3458 0 
140 1 -5.39219 -25.3049 0 
142 1 -4.26689 -25.2655 0 
144 1 -3.14216 -25.2266 0 
146 1 -2.01833 -25.1874 0 
148 1 -0.8951 -25.1489 0 
150 1 0.227707 -25.1119 0 
152 1 1.34992 -25.0756 0 
154 1 2.4717 -25.0402 0 
156 1 3.59338 -25.0062 0 
158 1 4.71499 -24.9739 0 
160 1 5.8365 -24.9432 0 
161 2 6.41316 -25.9242 0 
162 1 6.9581 -24.9144 0 
163 2 7.53443 -25.896 0 
164 1 8.07971 -24.8876 0 
165 2 8.65568 -25.8693 0 
167 2 9.77697 -25.844 0 
166 1 9.20102 -24.862 0 
169 2 10.8984 -25.8202 0 
168 1 10.3219 -24.8375 0 
171 2 12.0199 -25.7978 0 
170 1 11.4426 -24.8144 0 
173 2 13.1416 -25.7768 0 
172 1 12.5638 -24.7928 0 
175 2 14.2636 -25.7571 0 
177 2 15.3858 -25.7386 0 
179 2 16.5083 -25.7213 0 
181 2 17.6311 -25.7052 0 
183 2 18.7543 -25.6901 0 
185 2 19.8777 -25.6759 0 
187 2 21.0014 -25.6627 0 
189 2 22.1254 -25.6504 0 
191 2 23.2498 -25.6388 0 
193 2 24.3744 -25.628 0 
195 2 25.4993 -25.6179 0 
197 2 26.6245 -25.6084 0 
199 2 27.75 -25.5994 0 
202 2 -26.8739 -24.1187 0 
204 2 -25.7444 -24.0828 0 
206 2 -24.6148 -24.0464 0 
208 1 -23.4841 -24.009 0 
210 1 -22.3527 -23.9691 0 
212 1 -21.2212 -23.9286 0 
214 1 -20.0913 -23.889 0 
216 1 -18.9624 -23.8487 0 
219 1 -17.2516 -24.7637 0 
218 1 -17.8338 -23.8071 0 
221 1 -16.1234 -24.722 0 
220 1 -16.7049 -23.7647 0 
222 1 -15.5752 -23.7225 0 
223 1 -14.9943 -24.6811 0 
224 1 -14.4449 -23.6805 0 
225 1 -13.8644 -24.6405 0 
226 1 -13.3148 -23.6382 0 
227 1 -12.7342 -24.5991 0 
229 1 -11.6046 -24.5561 0 
231 1 -10.476 -24.5121 0 
233 1 -9.3485 -24.4679 0 
235 1 -8.2223 -24.4238 0 
237 1 -7.0968 -24.3802 0 
239 1 -5.97105 -24.338 0 
241 1 -4.84514 -24.2972 0 
243 1 -3.72008 -24.2567 0 
245 1 -2.59608 -24.2162 0 
247 1 -1.47249 -24.1764 0 
249 1 -0.349336 -24.1378 0 
251 1 0.772949 -24.1003 0 
253 1 1.89473 -24.0642 0 
255 1 3.01645 -24.0295 0 
257 1 4.13789 -23.996 0 
259 1 5.25898 -23.964 0 
261 1 6.38006 -23.9339 0 
263 1 7.50127 -23.9057 0 
265 1 8.62274 -23.879 0 
267 1 9.74458 -23.8538 0 
269 1 10.8664 -23.8302 0 
271 1 11.988 -23.8088 0 
273 1 13.1097 -23.7894 0 
174 1 13.6862 -24.7727 0 
275 1 14.232 -23.7713 0 
176 1 14.8094 -24.7542 0 
277 1 15.3551 -23.7541 0 
178 1 15.9328 -24.7374 0 
279 1 16.4788 -23.7382 0 
180 1 17.0557 -24.7222 0 
281 1 17.6022 -23.7239 0 
182 1 18.1781 -24.7082 0 
283 1 18.7252 -23.7113 0 
184 1 19.3007 -24.6949 0 
285 1 19.8483 -23.6996 0 
186 1 20.4242 -24.6819 0 
287 1 20.9719 -23.6875 0 
188 1 21.5486 -24.6688 0 
289 1 22.0961 -23.6749 0 
190 1 22.6733 -24.6567 0 
291 1 23.2212 -23.6645 0 
192 1 23.7985 -24.6465 0 
293 1 24.3471 -23.655 0 
194 1 24.924 -24.6363 0 
295 2 25.4729 -23.6443 0 
196 2 26.0488 -24.6264 0 
198 2 27.1745 -24.6176 0 
200 2 28.3003 -24.6093 0 
301 2 -27.4598 -23.1644 0 
303 2 -26.3303 -23.1287 0 
305 2 -25.2007 -23.0924 0 
307 2 -24.071 -23.0555 0 
309 1 -22.9399 -23.0163 0 
311 1 -21.8086 -22.9754 0 
313 1 -20.678 -22.9337 0 
315 1 -19.5484 -22.8928 0 
317 1 -18.4187 -22.851 0 
319 1 -17.2884 -22.8082 0 
321 1 -16.1573 -22.7653 0 
323 1 -15.0261 -22.7225 0 
325 1 -13.8956 -22.6794 0 
327 1 -12.7664 -22.6355 0 
228 1 -12.1853 -23.5949 0 
329 1 -11.6384 -22.5908 0 
230 1 -11.057 -23.5508 0 
331 1 -10.5113 -22.5457 0 
232 1 -9.92973 -23.5063 0 
333 1 -9.38433 -22.5006 0 
234 1 -8.80317 -23.4619 0 
236 1 -7.6766 -23.418 0 
238 1 -6.54978 -23.3748 0 
240 1 -5.42331 -23.332 0 
242 1 -4.29788 -23.2892 0 
244 1 -3.17357 -23.2467 0 
246 1 -2.05011 -23.2052 0 
248 1 -0.927415 -23.1649 0 
250 1 0.194838 -23.1261 0 
252 1 1.31699 -23.0892 0 
254 1 2.43878 -23.0536 0 
256 1 3.55994 -23.0191 0 
258 1 4.6809 -22.986 0 
260 1 5.80196 -22.9546 0 
262 1 6.92299 -22.9247 0 
264 1 8.0442 -22.8967 0 
266 1 9.16607 -22.8708 0 
268 1 10.2886 -22.8468 0 
270 1 11.4113 -22.8248 0 
272 1 12.5332 -22.8053 0 
274 1 13.6543 -22.788 0 
276 1 14.776 -22.7719 0 
278 1 15.8992 -22.756 0 
280 1 17.0237 -22.7405 0 
282 1 18.1486 -22.7265 0 
284 1 19.2729 -22.7146 0 
286 1 20.3964 -22.7037 0 
288 1 21.5197 -22.6924 0 
290 1 22.644 -22.6822 0 
292 1 23.7697 -22.6735 0 
294 1 24.896 -22.6632 0 
297 2 26.5987 -23.6355 0 
296 2 26.0228 -22.6533 0 
299 2 27.7248 -23.6273 0 
298 2 27.149 -22.6452 0 
300 2 28.2755 -22.6376 0 
302 2 -26.9167 -22.1747 0 
304 2 -25.7871 -22.1385 0 
306 2 -24.6574 -22.1018 0 
308 1 -23.5265 -22.0632 0 
310 1 -22.3966 -22.0235 0 
312 1 -21.2662 -21.9811 0 
314 1 -20.1359 -21.9379 0 
316 1 -19.0057 -21.895 0 
318 1 -17.8748 -21.852 0 
320 1 -16.743 -21.8092 0 
322 1 -15.6112 -21.7665 0 
324 1 -14.4803 -21.7233 0 
326 1 -13.3505 -21.679 0 
328 1 -12.2215 -21.6333 0 
330 1 -11.0931 -21.5867 0 
332 1 -9.96495 -21.5401 0 
334 1 -8.83707 -21.4941 0 
335 1 -8.25706 -22.456 0 
336 1 -7.70955 -21.4488 0 
337 1 -7.12958 -22.4117 0 
338 1 -6.58264 -21.4036 0 
339 1 -6.00258 -22.3674 0 
340 1 -5.45674 -21.3581 0 
341 1 -4.87659 -22.3231 0 
342 1 -4.33233 -21.3126 0 
343 1 -3.75179 -22.2791 0 
345 1 -2.62835 -22.236 0 
347 1 -1.5058 -22.1944 0 
349 1 -0.383233 -22.1546 0 
351 1 0.73932 -22.1164 0 
353 1 1.86112 -22.0791 0 
355 1 2.98232 -22.043 0 
357 1 4.1036 -22.0088 0 
359 1 5.22481 -21.9762 0 
361 1 6.34572 -21.945 0 
363 1 7.46662 -21.916 0 
365 1 8.58766 -21.8896 0 
367 1 9.70921 -21.8653 0 
369 1 10.8319 -21.8426 0 
371 1 11.9552 -21.8215 0 
373 1 13.0778 -21.803 0 
375 1 14.1991 -21.7875 0 
377 1 15.3204 -21.7736 0 
379 1 16.4434 -21.7592 0 
381 1 17.5684 -21.744 0 
383 1 18.6943 -21.7299 0 
385 1 19.8198 -21.7181 0 
387 1 20.9443 -21.7075 0 
389 1 22.0689 -21.6984 0 
391 1 23.1946 -21.6909 0 
393 1 24.3205 -21.682 0 
395 2 25.4466 -21.6709 0 
397 2 26.573 -21.6629 0 
399 2 27.6998 -21.6554 0 
401 2 -27.5037 -21.2208 0 
403 2 -26.3741 -21.1849 0 
402 2 -26.9617 -20.2313 0 
405 2 -25.2445 -21.1483 0 
404 2 -25.8321 -20.1949 0 
407 2 -24.1147 -21.111 0 
409 1 -22.9848 -21.0709 0 
411 1 -21.855 -21.0298 0 
413 1 -20.7239 -20.9853 0 
415 1 -19.593 -20.9403 0 
417 1 -18.4623 -20.8966 0 
419 1 -17.331 -20.8538 0 
421 1 -16.1993 -20.8115 0 
423 1 -15.0677 -20.7684 0 
425 1 -13.9368 -20.7238 0 
427 1 -12.8064 -20.6773 0 
429 1 -11.6766 -20.6296 0 
431 1 -10.5474 -20.5819 0 
433 1 -9.41865 -20.5348 0 
435 1 -8.29088 -20.4886 0 
437 1 -7.16438 -20.4421 0 
439 1 -6.03954 -20.395 0 
441 1 -4.91621 -20.3474 0 
344 1 -3.20915 -21.268 0 
443 1 -3.79335 -20.3006 0 
346 1 -2.0861 -21.2252 0 
445 1 -2.6699 -20.2563 0 
348 1 -0.962713 -21.1846 0 
447 1 -1.54609 -20.2139 0 
350 1 0.160274 -21.1449 0 
449 1 -0.423223 -20.172 0 
352 1 1.28231 -21.1059 0 
354 1 2.40409 -21.0685 0 
356 1 3.52605 -21.0331 0 
358 1 4.64764 -20.9989 0 
360 1 5.76873 -20.9665 0 
362 1 6.88959 -20.9369 0 
364 1 8.01015 -20.9097 0 
366 1 9.13073 -20.885 0 
368 1 10.2522 -20.8624 0 
370 1 11.3751 -20.8406 0 
372 1 12.4993 -20.8198 0 
374 1 13.6229 -20.8017 0 
376 1 14.745 -20.7877 0 
378 1 15.8666 -20.7758 0 
380 1 16.9894 -20.7627 0 
382 1 18.1145 -20.7483 0 
384 1 19.2411 -20.7345 0 
386 1 20.3676 -20.7224 0 
388 1 21.4938 -20.7131 0 
390 1 22.6203 -20.7067 0 
392 1 23.7462 -20.6992 0 
394 1 24.8715 -20.6899 0 
396 2 25.9969 -20.6804 0 
398 2 27.1238 -20.673 0 
400 2 28.251 -20.6661 0 
501 2 -27.5497 -19.2779 0 
503 2 -26.4202 -19.2417 0 
505 2 -25.2906 -19.2049 0 
406 2 -24.7023 -20.1579 0 
507 2 -24.1608 -19.1673 0 
408 1 -23.5734 -20.1194 0 
509 1 -23.0307 -19.1256 0 
410 1 -22.4427 -20.0773 0 
511 1 -21.9005 -19.0816 0 
412 1 -21.3122 -20.0341 0 
414 1 -20.1809 -19.9882 0 
513 1 -20.7704 -19.0376 0 
416 1 -19.0503 -19.9432 0 
418 1 -17.9197 -19.9001 0 
420 1 -16.788 -19.8574 0 
422 1 -15.6556 -19.814 0 
424 1 -14.5233 -19.769 0 
426 1 -13.3922 -19.7221 0 
428 1 -12.2621 -19.674 0 
430 1 -11.1324 -19.6258 0 
432 1 -10.003 -19.5781 0 
434 1 -8.87492 -19.5304 0 
436 1 -7.74896 -19.4821 0 
438 1 -6.62515 -19.4327 0 
440 1 -5.5027 -19.3826 0 
442 1 -4.38011 -19.334 0 
444 1 -3.25629 -19.2881 0 
446 1 -2.13266 -19.2434 0 
448 1 -1.01053 -19.1988 0 
450 1 0.111585 -19.1561 0 
451 1 0.698941 -20.1312 0 
452 1 1.23454 -19.1165 0 
453 1 1.82164 -20.0929 0 
454 1 2.35713 -19.0784 0 
455 1 2.94437 -20.0566 0 
456 1 3.47932 -19.0424 0 
457 1 4.0664 -20.0217 0 
458 1 4.6021 -19.01 0 
459 1 5.18843 -19.989 0 
461 1 6.31039 -19.9585 0 
463 1 7.4315 -19.9301 0 
465 1 8.55211 -19.9044 0 
467 1 9.67281 -19.8816 0 
469 1 10.7943 -19.8606 0 
471 1 11.9176 -19.8402 0 
473 1 13.0426 -19.8202 0 
475 1 14.1679 -19.8026 0 
477 1 15.2921 -19.7893 0 
479 1 16.4153 -19.7782 0 
481 1 17.539 -19.7665 0 
483 1 18.6642 -19.7533 0 
485 1 19.7903 -19.7396 0 
487 1 20.9169 -19.7281 0 
489 1 22.0441 -19.7211 0 
491 1 23.1705 -19.7146 0 
493 1 24.2958 -19.7067 0 
495 2 25.4205 -19.6978 0 
497 2 26.5477 -19.6905 0 
499 2 27.6751 -19.6838 0 
502 2 -27.0088 -18.2886 0 
504 2 -25.8793 -18.252 0 
506 2 -24.7497 -18.2147 0 
508 1 -23.6189 -18.1737 0 
510 1 -22.4896 -18.1302 0 
512 1 -21.3599 -18.0864 0 
514 1 -20.2289 -18.0427 0 
515 1 -19.6392 -18.9921 0 
516 1 -19.0957 -17.998 0 
517 1 -18.5078 -18.9483 0 
518 1 -17.9626 -17.9541 0 
519 1 -17.3756 -18.905 0 
520 1 -16.8305 -17.9091 0 
521 1 -16.2428 -18.8608 0 
522 1 -15.6995 -17.8627 0 
523 1 -15.1105 -18.815 0 
525 1 -13.9795 -18.7679 0 
527 1 -12.8494 -18.7198 0 
529 1 -11.7195 -18.6713 0 
531 1 -10.5901 -18.6221 0 
533 1 -9.46209 -18.5725 0 
535 1 -8.33599 -18.5221 0 
537 1 -7.21202 -18.4705 0 
539 1 -6.08962 -18.4184 0 
541 1 -4.96645 -18.3682 0 
543 1 -3.84215 -18.3209 0 
545 1 -2.71902 -18.2735 0 
547 1 -1.59727 -18.2263 0 
549 1 -0.474738 -18.1828 0 
551 1 0.647988 -18.1422 0 
553 1 1.76956 -18.1021 0 
555 1 2.89163 -18.0646 0 
557 1 4.01467 -18.0302 0 
559 1 5.13727 -17.9981 0 
460 1 5.72516 -18.9794 0 
561 1 6.2604 -17.9688 0 
462 1 6.84809 -18.9501 0 
563 1 7.38488 -17.9418 0 
464 1 7.97076 -18.9231 0 
565 1 8.50938 -17.9159 0 
466 1 9.09247 -18.8989 0 
567 1 9.63305 -17.8931 0 
468 1 10.2134 -18.8779 0 
569 1 10.7551 -17.8747 0 
470 1 11.3349 -18.8597 0 
472 1 12.4582 -18.8418 0 
474 1 13.5841 -18.8235 0 
476 1 14.7116 -18.8065 0 
478 1 15.8388 -18.7926 0 
480 1 16.9648 -18.7815 0 
482 1 18.09 -18.7706 0 
484 1 19.2149 -18.7579 0 
486 1 20.3401 -18.7449 0 
488 1 21.4664 -18.7358 0 
490 1 22.5931 -18.7293 0 
492 1 23.7191 -18.7221 0 
494 1 24.8448 -18.7146 0 
496 2 25.9714 -18.7078 0 
498 2 27.0991 -18.7012 0 
500 2 28.2271 -18.6951 0 
601 2 -27.5979 -17.3354 0 
603 2 -26.4686 -17.2992 0 
605 2 -25.3391 -17.2621 0 
607 2 -24.2094 -17.2244 0 
609 1 -23.0785 -17.1799 0 
611 1 -21.9483 -17.136 0 
613 1 -20.8176 -17.0926 0 
615 1 -19.6847 -17.0488 0 
617 1 -18.5511 -17.004 0 
619 1 -17.4197 -16.9589 0 
621 1 -16.2894 -16.9124 0 
524 1 -14.5687 -17.8152 0 
623 1 -15.1583 -16.8645 0 
526 1 -13.4379 -17.7671 0 
625 1 -14.0269 -16.8153 0 
528 1 -12.3078 -17.7175 0 
627 1 -12.8969 -16.7643 0 
530 1 -11.179 -17.6664 0 
629 1 -11.7681 -16.7123 0 
532 1 -10.051 -17.6149 0 
534 1 -8.92378 -17.5626 0 
536 1 -7.79893 -17.5087 0 
538 1 -6.67528 -17.4543 0 
540 1 -5.55064 -17.4032 0 
542 1 -4.42577 -17.3538 0 
544 1 -3.30296 -17.3032 0 
546 1 -2.18062 -17.2545 0 
548 1 -1.05724 -17.2102 0 
550 1 0.0650659 -17.1675 0 
552 1 1.1863 -17.126 0 
554 1 2.30873 -17.0887 0 
556 1 3.43176 -17.0531 0 
558 1 4.55421 -17.018 0 
560 1 5.67659 -16.9872 0 
562 1 6.79926 -16.9601 0 
564 1 7.92355 -16.9343 0 
566 1 9.04996 -16.9101 0 
568 1 10.1757 -16.8884 0 
571 1 11.8762 -17.8598 0 
570 1 11.2991 -16.8721 0 
573 1 12.9991 -17.8456 0 
572 1 12.4206 -16.8609 0 
575 1 14.1254 -17.8291 0 
574 1 13.5431 -16.8499 0 
577 1 15.2544 -17.812 0 
576 1 14.6693 -16.8353 0 
579 1 16.3835 -17.7974 0 
578 1 15.7979 -16.818 0 
581 1 17.5114 -17.786 0 
580 1 16.9271 -16.8032 0 
583 1 18.638 -17.775 0 
582 1 18.0555 -16.7916 0 
585 1 19.7637 -17.7624 0 
584 1 19.1831 -16.78 0 
587 1 20.8895 -17.7517 0 
586 1 20.3105 -16.7691 0 
589 1 22.0156 -17.7442 0 
588 1 21.4379 -16.7604 0 
591 1 23.1413 -17.7372 0 
590 1 22.5641 -16.7524 0 
593 1 24.2676 -17.7305 0 
592 1 23.6902 -16.7457 0 
595 2 25.3948 -17.725 0 
594 1 24.8173 -16.7403 0 
596 2 25.9465 -16.7357 0 
597 2 26.5229 -17.7186 0 
598 2 27.0751 -16.7299 0 
599 2 27.6512 -17.7126 0 
600 2 28.2039 -16.7246 0 
602 2 -27.0583 -16.3463 0 
604 2 -25.929 -16.3096 0 
606 2 -24.7995 -16.2721 0 
608 1 -23.6671 -16.2299 0 
610 1 -22.5374 -16.1867 0 
612 1 -21.4063 -16.1426 0 
614 1 -20.2746 -16.0995 0 
616 1 -19.1417 -16.0551 0 
618 1 -18.0095 -16.0097 0 
620 1 -16.8781 -15.9631 0 
622 1 -15.7471 -15.9144 0 
624 1 -14.6168 -15.8636 0 
626 1 -13.4869 -15.8122 0 
628 1 -12.356 -15.7602 0 
630 1 -11.2251 -15.707 0 
631 1 -10.6388 -16.6595 0 
632 1 -10.0962 -15.6496 0 
633 1 -9.51055 -16.6052 0 
634 1 -8.96909 -15.5898 0 
635 1 -8.38455 -16.548 0 
636 1 -7.84179 -15.5317 0 
637 1 -7.25916 -16.4918 0 
639 1 -6.133 -16.4387 0 
641 1 -5.00815 -16.3866 0 
643 1 -3.88506 -16.3344 0 
645 1 -2.76133 -16.2852 0 
647 1 -1.63769 -16.2392 0 
649 1 -0.515857 -16.193 0 
651 1 0.60595 -16.1492 0 
653 1 1.72899 -16.1099 0 
655 1 2.8512 -16.0731 0 
657 1 3.97353 -16.0389 0 
659 1 5.09734 -16.0072 0 
661 1 6.2197 -15.977 0 
663 1 7.34111 -15.9518 0 
665 1 8.46465 -15.9294 0 
667 1 9.59087 -15.9061 0 
669 1 10.718 -15.8855 0 
671 1 11.8428 -15.8707 0 
673 1 12.9656 -15.8621 0 
675 1 14.0891 -15.854 0 
677 1 15.2153 -15.8408 0 
679 1 16.3435 -15.8244 0 
681 1 17.4719 -15.8098 0 
683 1 18.6002 -15.7977 0 
685 1 19.7285 -15.787 0 
687 1 20.8571 -15.7782 0 
689 1 21.985 -15.7693 0 
691 1 23.1125 -15.7613 0 
693 1 24.2403 -15.755 0 
695 2 25.3699 -15.7527 0 
697 2 26.4989 -15.7471 0 
699 2 27.6281 -15.742 0 
701 2 -27.6483 -15.3934 0 
703 2 -26.5193 -15.357 0 
705 2 -25.3901 -15.3199 0 
707 2 -24.2607 -15.282 0 
709 1 -23.1286 -15.2361 0 
711 1 -21.9967 -15.194 0 
713 1 -20.8637 -15.1499 0 
715 1 -19.7322 -15.107 0 
717 1 -18.5996 -15.0614 0 
719 1 -17.4674 -15.014 0 
721 1 -16.3374 -14.9641 0 
723 1 -15.2083 -14.9128 0 
725 1 -14.0772 -14.8616 0 
727 1 -12.9439 -14.8104 0 
729 1 -11.8116 -14.7556 0 
731 1 -10.6824 -14.6962 0 
733 1 -9.55403 -14.6348 0 
735 1 -8.42551 -14.5753 0 
638 1 -6.71488 -15.4766 0 
737 1 -7.29773 -14.5186 0 
640 1 -5.58978 -15.4225 0 
739 1 -6.17102 -14.4629 0 
642 1 -4.46554 -15.3693 0 
741 1 -5.04584 -14.4079 0 
644 1 -3.34144 -15.319 0 
743 1 -3.92148 -14.3538 0 
646 1 -2.21804 -15.2697 0 
648 1 -1.0956 -15.2204 0 
650 1 0.0269501 -15.1739 0 
652 1 1.14935 -15.1315 0 
654 1 2.27103 -15.0909 0 
656 1 3.39313 -15.0553 0 
658 1 4.51582 -15.0249 0 
660 1 5.63939 -14.9944 0 
662 1 6.76361 -14.9666 0 
664 1 7.88553 -14.9436 0 
666 1 9.00708 -14.9238 0 
668 1 10.132 -14.9042 0 
670 1 11.2585 -14.8842 0 
672 1 12.3844 -14.8709 0 
674 1 13.5088 -14.8641 0 
676 1 14.6339 -14.858 0 
678 1 15.7609 -14.8466 0 
680 1 16.8894 -14.8315 0 
682 1 18.0179 -14.8169 0 
684 1 19.1467 -14.805 0 
686 1 20.2761 -14.7963 0 
688 1 21.4048 -14.7873 0 
690 1 22.5332 -14.7782 0 
692 1 23.662 -14.7708 0 
694 1 24.7924 -14.7676 0 
696 2 25.9226 -14.7642 0 
698 2 27.0521 -14.7592 0 
700 2 28.1818 -14.7547 0 
702 2 -27.11 -14.4044 0 
801 2 -27.7009 -13.4516 0 
704 2 -25.9811 -14.3676 0 
803 2 -26.5724 -13.4152 0 
706 2 -24.852 -14.3301 0 
805 2 -25.4437 -13.3781 0 
708 1 -23.7217 -14.2887 0 
807 2 -24.3146 -13.3401 0 
710 1 -22.5871 -14.2441 0 
809 1 -23.1815 -13.2961 0 
712 1 -21.4538 -14.2016 0 
714 1 -20.3224 -14.1583 0 
716 1 -19.192 -14.114 0 
718 1 -18.0603 -14.0649 0 
720 1 -16.93 -14.0143 0 
722 1 -15.7997 -13.9637 0 
724 1 -14.6671 -13.9129 0 
726 1 -13.5334 -13.8611 0 
728 1 -12.4007 -13.8049 0 
730 1 -11.2705 -13.7452 0 
732 1 -10.141 -13.6834 0 
734 1 -9.01202 -13.6231 0 
736 1 -7.88252 -13.5644 0 
738 1 -6.7545 -13.5067 0 
740 1 -5.62851 -13.4476 0 
742 1 -4.50298 -13.3897 0 
744 1 -3.37714 -13.3342 0 
745 1 -2.79736 -14.3009 0 
746 1 -2.25343 -13.2791 0 
747 1 -1.67407 -14.2487 0 
748 1 -1.1308 -13.2271 0 
749 1 -0.551526 -14.1994 0 
751 1 0.570748 -14.1545 0 
753 1 1.69218 -14.1129 0 
755 1 2.81419 -14.0751 0 
757 1 3.93624 -14.0405 0 
759 1 5.05776 -14.0103 0 
761 1 6.18213 -13.9835 0 
763 1 7.30763 -13.9562 0 
765 1 8.43145 -13.9346 0 
767 1 9.55325 -13.9187 0 
769 1 10.676 -13.9021 0 
771 1 11.8017 -13.8853 0 
773 1 12.9273 -13.8724 0 
775 1 14.0527 -13.8672 0 
777 1 15.1785 -13.8625 0 
779 1 16.3065 -13.8534 0 
781 1 17.4356 -13.8391 0 
783 1 18.5645 -13.8247 0 
785 1 19.6943 -13.8146 0 
787 1 20.8246 -13.806 0 
789 1 21.9543 -13.796 0 
791 1 23.0843 -13.7872 0 
793 1 24.215 -13.7828 0 
795 2 25.3462 -13.7811 0 
797 2 26.4761 -13.7764 0 
799 2 27.6062 -13.772 0 
802 2 -27.164 -12.4626 0 
804 2 -26.0357 -12.4259 0 
806 2 -24.9071 -12.3884 0 
808 1 -23.7772 -12.348 0 
810 1 -22.6433 -12.3041 0 
811 1 -22.0476 -13.2526 0 
812 1 -21.5101 -12.2623 0 
813 1 -20.9154 -13.2101 0 
814 1 -20.3784 -12.2169 0 
815 1 -19.7852 -13.1655 0 
816 1 -19.2481 -12.1691 0 
817 1 -18.6547 -13.117 0 
818 1 -18.1173 -12.1193 0 
819 1 -17.523 -13.0661 0 
821 1 -16.3908 -13.016 0 
823 1 -15.2585 -12.9654 0 
825 1 -14.126 -12.9117 0 
827 1 -12.9935 -12.8561 0 
829 1 -11.8615 -12.7964 0 
831 1 -10.7316 -12.7352 0 
833 1 -9.60179 -12.6732 0 
835 1 -8.4716 -12.6131 0 
837 1 -7.34274 -12.5517 0 
839 1 -6.21571 -12.4894 0 
841 1 -5.08822 -12.4298 0 
843 1 -3.96156 -12.3721 0 
845 1 -2.83776 -12.3136 0 
847 1 -1.71325 -12.2588 0 
750 1 -0.00788421 -13.1802 0 
849 1 -0.588764 -12.2072 0 
851 1 0.532893 -12.1564 0 
752 1 1.11401 -13.135 0 
853 1 1.65494 -12.1124 0 
754 1 2.23542 -13.0956 0 
855 1 2.77658 -12.0747 0 
756 1 3.35685 -13.0607 0 
758 1 4.479 -13.0277 0 
760 1 5.60129 -12.9998 0 
762 1 6.7243 -12.9727 0 
764 1 7.85104 -12.9477 0 
766 1 8.97617 -12.927 0 
768 1 10.0991 -12.9137 0 
770 1 11.2229 -12.9016 0 
772 1 12.3487 -12.8869 0 
774 1 13.4746 -12.8758 0 
776 1 14.5994 -12.8706 0 
778 1 15.7255 -12.8683 0 
780 1 16.8541 -12.8604 0 
782 1 17.9838 -12.847 0 
784 1 19.1134 -12.834 0 
786 1 20.2437 -12.8249 0 
788 1 21.3743 -12.815 0 
790 1 22.5057 -12.8052 0 
792 1 23.6375 -12.7983 0 
794 1 24.7693 -12.7961 0 
796 2 25.9 -12.7934 0 
798 2 27.0306 -12.7893 0 
800 2 28.1612 -12.7854 0 
901 2 -27.7557 -11.5099 0 
903 2 -26.6279 -11.4735 0 
905 2 -25.4997 -11.4364 0 
907 2 -24.3713 -11.3985 0 
909 1 -23.2387 -11.3572 0 
911 1 -22.1057 -11.3132 0 
913 1 -20.9752 -11.2694 0 
915 1 -19.8439 -11.2213 0 
917 1 -18.7139 -11.1725 0 
820 1 -16.9857 -12.0688 0 
919 1 -17.5832 -11.1219 0 
822 1 -15.8539 -12.0175 0 
921 1 -16.4499 -11.0699 0 
824 1 -14.7215 -11.9642 0 
923 1 -15.3161 -11.0184 0 
826 1 -13.588 -11.9088 0 
925 1 -14.1823 -10.963 0 
828 1 -12.4553 -11.8502 0 
927 1 -13.0508 -10.9041 0 
830 1 -11.3248 -11.7879 0 
832 1 -10.1945 -11.7255 0 
834 1 -9.06408 -11.6633 0 
836 1 -7.93471 -11.5992 0 
838 1 -6.80627 -11.5357 0 
840 1 -5.67784 -11.4752 0 
842 1 -4.55185 -11.4145 0 
844 1 -3.42691 -11.3528 0 
846 1 -2.30013 -11.2943 0 
848 1 -1.17523 -11.2358 0 
850 1 -0.0533308 -11.1779 0 
852 1 1.06891 -11.1306 0 
854 1 2.19107 -11.0892 0 
857 1 3.89807 -12.0436 0 
856 1 3.3142 -11.0544 0 
859 1 5.02087 -12.0157 0 
858 1 4.43714 -11.0267 0 
861 1 6.14365 -11.9894 0 
860 1 5.56076 -11.0022 0 
863 1 7.26823 -11.9659 0 
862 1 6.68619 -10.982 0 
865 1 8.39419 -11.9399 0 
864 1 7.81232 -10.9593 0 
867 1 9.51963 -11.9213 0 
869 1 10.6424 -11.9105 0 
871 1 11.7677 -11.9021 0 
873 1 12.8963 -11.8901 0 
875 1 14.0234 -11.8793 0 
877 1 15.1479 -11.8754 0 
879 1 16.2741 -11.8743 0 
881 1 17.4036 -11.8675 0 
883 1 18.5342 -11.8556 0 
885 1 19.6648 -11.8447 0 
887 1 20.7957 -11.8343 0 
889 1 21.9272 -11.824 0 
891 1 23.0592 -11.8157 0 
893 1 24.192 -11.8122 0 
895 2 25.3239 -11.8103 0 
897 2 26.4549 -11.8064 0 
899 2 27.586 -11.8028 0 
902 2 -27.2202 -10.5209 0 
904 2 -26.0925 -10.4842 0 
906 2 -24.9646 -10.4468 0 
908 1 -23.8343 -10.4079 0 
910 1 -22.704 -10.3656 0 
912 1 -21.5736 -10.3208 0 
914 1 -20.4417 -10.2749 0 
916 1 -19.3097 -10.2254 0 
918 1 -18.1791 -10.1754 0 
920 1 -17.0455 -10.1242 0 
922 1 -15.9116 -10.0726 0 
924 1 -14.7806 -10.0186 0 
926 1 -13.6503 -9.95782 0 
928 1 -12.5197 -9.89699 0 
929 1 -11.9202 -10.8413 0 
930 1 -11.3872 -9.83455 0 
931 1 -10.7893 -10.7792 0 
932 1 -10.2561 -9.77104 0 
933 1 -9.65836 -10.7154 0 
935 1 -8.5287 -10.6505 0 
937 1 -7.39914 -10.5861 0 
939 1 -6.27108 -10.5228 0 
941 1 -5.14509 -10.458 0 
943 1 -4.01836 -10.3932 0 
945 1 -2.8909 -10.3304 0 
947 1 -1.76647 -10.2665 0 
949 1 -0.645305 -10.2042 0 
951 1 0.476374 -10.1515 0 
953 1 1.597 -10.1056 0 
955 1 2.71953 -10.0702 0 
957 1 3.84357 -10.0388 0 
959 1 4.96948 -10.013 0 
961 1 6.09617 -9.99076 0 
963 1 7.22264 -9.97279 0 
965 1 8.35173 -9.95671 0 
866 1 8.94145 -10.936 0 
967 1 9.48369 -9.9332 0 
868 1 10.0667 -10.9158 0 
969 1 10.6153 -9.91541 0 
870 1 11.1891 -10.9086 0 
971 1 11.7396 -9.90667 0 
872 1 12.3134 -10.9028 0 
973 1 12.8642 -9.90446 0 
874 1 13.4438 -10.894 0 
975 1 13.9935 -9.89671 0 
876 1 14.5723 -10.8839 0 
977 1 15.1232 -9.89052 0 
878 1 15.6976 -10.8815 0 
979 1 16.2487 -9.88791 0 
880 1 16.8239 -10.8805 0 
981 1 17.3759 -9.88791 0 
882 1 17.9544 -10.8751 0 
983 1 18.5068 -9.88365 0 
884 1 19.086 -10.8655 0 
985 1 19.6401 -9.87585 0 
886 1 20.2174 -10.8548 0 
987 1 20.7723 -9.86401 0 
888 1 21.3492 -10.8434 0 
890 1 22.482 -10.8339 0 
989 1 21.9041 -9.85332 0 
892 1 23.6151 -10.8287 0 
991 1 23.0374 -9.84639 0 
894 1 24.7469 -10.826 0 
993 1 24.171 -9.84213 0 
896 2 25.8793 -10.8234 0 
995 2 25.3037 -9.84035 0 
898 2 27.0108 -10.8201 0 
997 2 26.4357 -9.83726 0 
900 2 28.1423 -10.817 0 
999 2 27.5677 -9.8344 0 
1001 2 -27.8125 -9.56805 0 
1003 2 -26.6854 -9.5318 0 
1005 2 -25.5581 -9.49477 0 
1007 2 -24.4305 -9.45693 0 
1009 1 -23.3003 -9.41708 0 
1011 1 -22.1703 -9.37313 0 
1013 1 -21.039 -9.3277 0 
1015 1 -19.9068 -9.279 0 
1017 1 -18.7763 -9.22899 0 
1019 1 -17.6448 -9.1795 0 
1021 1 -16.5118 -9.12736 0 
1023 1 -15.3816 -9.07323 0 
1025 1 -14.2508 -9.01368 0 
1027 1 -13.1188 -8.9531 0 
1029 1 -11.9862 -8.89208 0 
1031 1 -10.8535 -8.82777 0 
934 1 -9.12567 -9.70498 0 
1033 1 -9.72236 -8.76131 0 
936 1 -7.99627 -9.63894 0 
1035 1 -8.59259 -8.69147 0 
938 1 -6.86841 -9.57093 0 
1037 1 -7.46507 -8.61959 0 
940 1 -5.74114 -9.50253 0 
1039 1 -6.33667 -8.54915 0 
942 1 -4.61275 -9.43592 0 
944 1 -3.48442 -9.37032 0 
946 1 -2.3599 -9.30009 0 
948 1 -1.23929 -9.23063 0 
950 1 -0.118147 -9.1719 0 
952 1 1.00202 -9.12097 0 
954 1 2.12407 -9.08288 0 
956 1 3.24634 -9.05044 0 
958 1 4.37239 -9.0255 0 
960 1 5.49906 -9.00231 0 
962 1 6.62919 -8.98211 0 
964 1 7.75845 -8.96583 0 
966 1 8.8871 -8.95257 0 
968 1 10.0202 -8.93525 0 
970 1 11.1558 -8.91714 0 
972 1 12.2872 -8.90967 0 
974 1 13.4144 -8.90549 0 
976 1 14.5455 -8.90098 0 
978 1 15.6758 -8.89635 0 
980 1 16.8021 -8.89593 0 
982 1 17.9291 -8.89628 0 
984 1 19.0607 -8.89378 0 
986 1 20.1956 -8.88537 0 
988 1 21.329 -8.87371 0 
990 1 22.4609 -8.86468 0 
992 1 23.5942 -8.85972 0 
994 1 24.7281 -8.85692 0 
996 2 25.8608 -8.85435 0 
998 2 26.9933 -8.85174 0 
1000 2 28.1257 -8.84931 0 
1002 2 -27.2783 -8.57905 0 
1101 2 -27.8711 -7.62598 0 
1004 2 -26.1516 -8.54247 0 
1103 2 -26.7449 -7.58983 0 
1006 2 -25.0246 -8.50509 0 
1105 2 -25.6186 -7.5529 0 
1008 1 -23.8953 -8.46646 0 
1107 2 -24.492 -7.51516 0 
1010 1 -22.7675 -8.42589 0 
1012 1 -21.6383 -8.37993 0 
1014 1 -20.507 -8.33273 0 
1016 1 -19.375 -8.28314 0 
1018 1 -18.2442 -8.23396 0 
1020 1 -17.1126 -8.18326 0 
1022 1 -15.9811 -8.12767 0 
1024 1 -14.8497 -8.07074 0 
1026 1 -13.7181 -8.01009 0 
1028 1 -12.587 -7.95066 0 
1030 1 -11.4531 -7.88658 0 
1032 1 -10.3203 -7.81844 0 
1034 1 -9.19086 -7.74535 0 
1036 1 -8.06362 -7.67046 0 
1038 1 -6.93355 -7.59971 0 
1041 1 -5.20673 -8.4826 0 
1040 1 -5.80122 -7.53182 0 
1043 1 -4.07752 -8.41336 0 
1042 1 -4.67348 -7.45887 0 
1045 1 -2.95435 -8.33757 0 
1044 1 -3.54998 -7.37619 0 
1047 1 -1.83275 -8.26002 0 
1049 1 -0.712081 -8.19168 0 
1051 1 0.408336 -8.134 0 
1053 1 1.53168 -8.09097 0 
1055 1 2.65604 -8.05749 0 
1057 1 3.78126 -8.03471 0 
1059 1 4.90817 -8.01242 0 
1061 1 6.0387 -7.99608 0 
1063 1 7.16941 -7.97602 0 
1065 1 8.30228 -7.96232 0 
1067 1 9.43235 -7.95003 0 
1069 1 10.5645 -7.93642 0 
1071 1 11.6995 -7.92146 0 
1073 1 12.8321 -7.91441 0 
1075 1 13.9623 -7.91045 0 
1077 1 15.0963 -7.90658 0 
1079 1 16.2291 -7.90292 0 
1081 1 17.3574 -7.90473 0 
1083 1 18.4841 -7.90613 0 
1085 1 19.6166 -7.90412 0 
1087 1 20.7524 -7.89476 0 
1089 1 21.8859 -7.88485 0 
1091 1 23.0187 -7.87776 0 
1093 1 24.1523 -7.87319 0 
1095 2 25.2861 -7.87134 0 
1097 2 26.419 -7.86899 0 
1099 2 27.5519 -7.8668 0 
1102 2 -27.3381 -6.63684 0 
1104 2 -26.2124 -6.60035 0 
1106 2 -25.0865 -6.56307 0 
1108 1 -23.9593 -6.52557 0 
1109 1 -23.3636 -7.47626 0 
1110 1 -22.8327 -6.48468 0 
1111 1 -22.2361 -7.43272 0 
1112 1 -21.704 -6.43848 0 
1113 1 -21.1054 -7.38542 0 
1114 1 -20.574 -6.39085 0 
1115 1 -19.9735 -7.33792 0 
1116 1 -19.445 -6.34237 0 
1117 1 -18.843 -7.28779 0 
1119 1 -17.7138 -7.23806 0 
1121 1 -16.5837 -7.1843 0 
1123 1 -15.453 -7.12697 0 
1125 1 -14.3223 -7.06903 0 
1127 1 -13.1902 -7.00948 0 
1129 1 -12.056 -6.94746 0 
1131 1 -10.9225 -6.87706 0 
1133 1 -9.79424 -6.80232 0 
1135 1 -8.66567 -6.72506 0 
1137 1 -7.53319 -6.65394 0 
1139 1 -6.40042 -6.58456 0 
1141 1 -5.27273 -6.50625 0 
1143 1 -4.14994 -6.42255 0 
1145 1 -3.03003 -6.33355 0 
1046 1 -2.42961 -7.2938 0 
1147 1 -1.90941 -6.2438 0 
1048 1 -1.30931 -7.2158 0 
1050 1 -0.189166 -7.1456 0 
1052 1 0.930753 -7.09653 0 
1054 1 2.0546 -7.06301 0 
1056 1 3.18243 -7.03937 0 
1058 1 4.31249 -7.01982 0 
1060 1 5.44462 -7.00451 0 
1062 1 6.57687 -6.98855 0 
1064 1 7.71171 -6.97496 0 
1066 1 8.84563 -6.95939 0 
1068 1 9.9809 -6.95251 0 
1070 1 11.1152 -6.93753 0 
1072 1 12.2537 -6.92628 0 
1074 1 13.3841 -6.91881 0 
1076 1 14.5141 -6.91896 0 
1078 1 15.6474 -6.91339 0 
1080 1 16.783 -6.91212 0 
1082 1 17.9128 -6.91375 0 
1084 1 19.0409 -6.91774 0 
1086 1 20.1747 -6.91384 0 
1088 1 21.311 -6.90533 0 
1090 1 22.4443 -6.89754 0 
1092 1 23.5769 -6.89079 0 
1094 1 24.7119 -6.88802 0 
1096 2 25.8451 -6.88616 0 
1098 2 26.9784 -6.88422 0 
1100 2 28.1116 -6.88241 0 
1201 2 -27.9311 -5.68349 0 