ITEM: TIMESTEP
4500
ITEM: NUMBER OF ATOMS
2850
ITEM: BOX BOUNDS ff ff pp
-42.092 42.092
-42.092 42.092
-0.280613 0.280613
ITEM: ATOMS id type xu yu zu 
1 2 -27.3398 -28.9988 0 
3 2 -26.2107 -28.9642 0 
5 2 -25.0816 -28.9291 0 
7 2 -23.9525 -28.8936 0 
9 2 -22.8235 -28.8577 0 
11 2 -21.6944 -28.8213 0 
13 2 -20.5655 -28.7844 0 
15 2 -19.4366 -28.7472 0 
17 2 -18.3079 -28.7095 0 
19 2 -17.1793 -28.6715 0 
21 2 -16.0508 -28.6331 0 
23 2 -14.9226 -28.5944 0 
25 2 -13.7947 -28.5554 0 
27 2 -12.667 -28.5163 0 
29 2 -11.5396 -28.477 0 
31 2 -10.4126 -28.4376 0 
33 2 -9.28592 -28.3982 0 
35 2 -8.15967 -28.3589 0 
37 2 -7.03386 -28.3198 0 
39 2 -5.90848 -28.281 0 
2 2 -26.7941 -28.0086 0 
4 2 -25.6649 -27.9736 0 
6 2 -24.5357 -27.9381 0 
8 2 -23.4065 -27.902 0 
10 2 -22.2773 -27.8656 0 
12 2 -21.1481 -27.8286 0 
14 2 -20.019 -27.7912 0 
16 2 -18.89 -27.7533 0 
18 2 -17.7611 -27.715 0 
20 2 -16.6324 -27.6763 0 
22 2 -15.5039 -27.6373 0 
24 2 -14.3755 -27.5979 0 
26 2 -13.2475 -27.5582 0 
28 2 -12.1197 -27.5183 0 
30 2 -10.9923 -27.4783 0 
32 2 -9.86522 -27.4382 0 
34 2 -8.73856 -27.3981 0 
36 2 -7.61233 -27.3581 0 
38 2 -6.48656 -27.3184 0 
40 2 -5.36126 -27.2789 0 
41 2 -4.78357 -28.2426 0 
42 2 -4.23645 -27.24 0 
43 2 -3.65912 -28.2046 0 
44 2 -3.11213 -27.2015 0 
45 2 -2.53513 -28.1673 0 
46 2 -1.98828 -27.1638 0 
47 2 -1.41159 -28.1307 0 
48 2 -0.8649 -27.1269 0 
49 2 -0.288464 -28.095 0 
51 2 0.834263 -28.0602 0 
53 2 1.95663 -28.0264 0 
55 2 3.07869 -27.9937 0 
57 2 4.20048 -27.9622 0 
59 2 5.32207 -27.9319 0 
61 2 6.4435 -27.9029 0 
63 2 7.56483 -27.8752 0 
65 2 8.68613 -27.8488 0 
67 2 9.80743 -27.8237 0 
69 2 10.9288 -27.8 0 
71 2 12.0503 -27.7775 0 
73 2 13.1719 -27.7563 0 
75 2 14.2937 -27.7363 0 
77 2 15.4157 -27.7174 0 
79 2 16.538 -27.6997 0 
81 2 17.6605 -27.683 0 
83 2 18.7832 -27.6673 0 
85 2 19.9063 -27.6526 0 
87 2 21.0296 -27.6388 0 
89 2 22.1532 -27.6258 0 
91 2 23.2771 -27.6136 0 
93 2 24.4012 -27.6022 0 
95 2 25.5256 -27.5914 0 
97 2 26.6503 -27.5812 0 
99 2 27.7752 -27.5717 0 
101 2 -27.378 -27.0533 0 
103 2 -26.2487 -27.0183 0 
102 2 -26.833 -26.0633 0 
105 2 -25.1194 -26.9828 0 
104 2 -25.7037 -26.0278 0 
107 2 -23.9901 -26.9468 0 
106 2 -24.5742 -25.9918 0 
109 2 -22.8607 -26.9102 0 
108 1 -23.4444 -25.955 0 
111 2 -21.7314 -26.8732 0 
113 2 -20.6021 -26.8357 0 
115 2 -19.4729 -26.7977 0 
117 2 -18.3437 -26.7591 0 
119 2 -17.2147 -26.7202 0 
121 2 -16.0858 -26.6808 0 
123 2 -14.9572 -26.641 0 
125 2 -13.8287 -26.6009 0 
127 2 -12.7006 -26.5605 0 
129 2 -11.5727 -26.5198 0 
131 2 -10.4452 -26.479 0 
133 2 -9.31813 -26.4382 0 
135 2 -8.19146 -26.3973 0 
137 2 -7.06526 -26.3566 0 
139 2 -5.93954 -26.3162 0 
141 2 -4.81433 -26.2762 0 
143 2 -3.68963 -26.2366 0 
145 2 -2.56545 -26.1977 0 
147 2 -1.44177 -26.1596 0 
50 2 0.258046 -27.0909 0 
149 2 -0.318563 -26.1224 0 
52 2 1.38059 -27.056 0 
151 2 0.804196 -26.0862 0 
54 2 2.50279 -27.0222 0 
153 2 1.92656 -26.0512 0 
56 2 3.62468 -26.9896 0 
155 2 3.04857 -26.0174 0 
58 2 4.74633 -26.9582 0 
157 2 4.1703 -25.9849 0 
60 2 5.86779 -26.9282 0 
159 2 5.2918 -25.9538 0 
62 2 6.98913 -26.8996 0 
64 2 8.11041 -26.8723 0 
66 2 9.23169 -26.8465 0 
68 2 10.353 -26.822 0 
70 2 11.4745 -26.7989 0 
72 2 12.596 -26.7771 0 
74 2 13.7178 -26.7566 0 
76 2 14.8398 -26.7373 0 
78 2 15.962 -26.7192 0 
80 2 17.0845 -26.7023 0 
82 2 18.2073 -26.6863 0 
84 2 19.3304 -26.6714 0 
86 2 20.4538 -26.6575 0 
88 2 21.5774 -26.6444 0 
90 2 22.7014 -26.6321 0 
92 2 23.8256 -26.6206 0 
94 2 24.9501 -26.6098 0 
96 2 26.0749 -26.5996 0 
98 2 27.2 -26.5901 0 
100 2 28.3253 -26.5811 0 
201 2 -27.4179 -25.1085 0 
203 2 -26.2885 -25.0731 0 
205 2 -25.159 -25.0372 0 
207 2 -24.0295 -25.0007 0 
209 1 -22.8992 -24.9628 0 
110 1 -22.3147 -25.9176 0 
211 1 -21.7693 -24.9245 0 
112 1 -21.1852 -25.8797 0 
213 1 -20.6396 -24.8858 0 
114 1 -20.0558 -25.8413 0 
215 1 -19.5099 -24.8466 0 
116 1 -18.9264 -25.8025 0 
217 1 -18.3805 -24.8069 0 
118 1 -17.7973 -25.7632 0 
120 1 -16.6683 -25.7234 0 
122 1 -15.5395 -25.6831 0 
124 1 -14.4109 -25.6427 0 
126 1 -13.2825 -25.6019 0 
128 1 -12.1545 -25.5605 0 
130 1 -11.027 -25.5191 0 
132 1 -9.89976 -25.4776 0 
134 1 -8.773 -25.4359 0 
136 1 -7.64674 -25.3945 0 
138 1 -6.52089 -25.3532 0 
140 1 -5.39558 -25.312 0 
142 1 -4.27088 -25.2716 0 
144 1 -3.1466 -25.2317 0 
146 1 -2.02277 -25.1924 0 
148 1 -0.899348 -25.1543 0 
150 1 0.223651 -25.117 0 
152 1 1.34623 -25.0809 0 
154 1 2.4685 -25.0461 0 
156 1 3.59044 -25.0127 0 
158 1 4.71224 -24.9806 0 
160 1 5.83401 -24.9501 0 
161 2 6.41316 -25.9242 0 
162 1 6.95569 -24.9211 0 
163 2 7.53443 -25.896 0 
164 1 8.07734 -24.8937 0 
165 2 8.65568 -25.8693 0 
167 2 9.77697 -25.844 0 
166 1 9.19895 -24.8677 0 
169 2 10.8984 -25.8202 0 
168 1 10.3207 -24.8431 0 
171 2 12.0199 -25.7978 0 
170 1 11.4426 -24.8202 0 
173 2 13.1416 -25.7768 0 
175 2 14.2636 -25.7571 0 
177 2 15.3858 -25.7386 0 
179 2 16.5083 -25.7213 0 
181 2 17.6311 -25.7052 0 
183 2 18.7543 -25.6901 0 
185 2 19.8777 -25.6759 0 
187 2 21.0014 -25.6627 0 
189 2 22.1254 -25.6504 0 
191 2 23.2498 -25.6388 0 
193 2 24.3744 -25.628 0 
195 2 25.4993 -25.6179 0 
197 2 26.6245 -25.6084 0 
199 2 27.75 -25.5994 0 
202 2 -26.8739 -24.1187 0 
204 2 -25.7444 -24.0828 0 
206 2 -24.6148 -24.0464 0 
208 1 -23.4845 -24.0088 0 
210 1 -22.3543 -23.97 0 
212 1 -21.2243 -23.9309 0 
214 1 -20.0944 -23.8915 0 
216 1 -18.9647 -23.8513 0 
219 1 -17.2514 -24.7667 0 
218 1 -17.8351 -23.8106 0 
221 1 -16.1224 -24.7261 0 
220 1 -16.7059 -23.7697 0 
222 1 -15.5769 -23.7283 0 
223 1 -14.9936 -24.6851 0 
224 1 -14.4481 -23.6864 0 
225 1 -13.8651 -24.6438 0 
227 1 -12.7369 -24.602 0 
229 1 -11.6089 -24.5597 0 
231 1 -10.4815 -24.5176 0 
233 1 -9.35467 -24.4751 0 
235 1 -8.22825 -24.4327 0 
237 1 -7.1023 -24.3908 0 
239 1 -5.97693 -24.3487 0 
241 1 -4.85207 -24.307 0 
243 1 -3.72768 -24.2661 0 
245 1 -2.60368 -24.2258 0 
247 1 -1.48017 -24.1865 0 
249 1 -0.357066 -24.1483 0 
251 1 0.765799 -24.111 0 
253 1 1.88832 -24.0752 0 
255 1 3.01053 -24.0407 0 
257 1 4.13258 -24.0077 0 
259 1 5.25467 -23.9762 0 
261 1 6.37665 -23.9464 0 
263 1 7.49862 -23.9182 0 
265 1 8.62053 -23.8915 0 
267 1 9.74251 -23.8662 0 
269 1 10.8648 -23.8427 0 
271 1 11.9871 -23.8206 0 
172 1 12.5647 -24.7987 0 
273 1 13.1097 -23.7999 0 
174 1 13.687 -24.7784 0 
275 1 14.2326 -23.7805 0 
176 1 14.8096 -24.7596 0 
277 1 15.3556 -23.7624 0 
178 1 15.9323 -24.7419 0 
279 1 16.4788 -23.7457 0 
180 1 17.0554 -24.7254 0 
281 1 17.6024 -23.7299 0 
182 1 18.1788 -24.71 0 
283 1 18.7261 -23.7151 0 
184 1 19.3023 -24.6955 0 
285 1 19.8501 -23.7013 0 
186 1 20.4262 -24.682 0 
287 1 20.9743 -23.6883 0 
188 1 21.5503 -24.6694 0 
289 1 22.0988 -23.6763 0 
190 1 22.6747 -24.6576 0 
291 1 23.2234 -23.6651 0 
192 1 23.7992 -24.6466 0 
293 1 24.3481 -23.6546 0 
194 1 24.9239 -24.6362 0 
295 2 25.4729 -23.6443 0 
196 2 26.0488 -24.6264 0 
198 2 27.1745 -24.6176 0 
200 2 28.3003 -24.6093 0 
301 2 -27.4598 -23.1644 0 
303 2 -26.3303 -23.1287 0 
305 2 -25.2007 -23.0924 0 
307 2 -24.071 -23.0555 0 
309 1 -22.9404 -23.0162 0 
311 1 -21.81 -22.9768 0 
313 1 -20.6798 -22.937 0 
315 1 -19.5498 -22.8965 0 
317 1 -18.4201 -22.8555 0 
319 1 -17.2904 -22.814 0 
321 1 -16.161 -22.7722 0 
323 1 -15.032 -22.7299 0 
226 1 -13.3196 -23.6441 0 
325 1 -13.9032 -22.6871 0 
327 1 -12.7749 -22.6437 0 
228 1 -12.1916 -23.6014 0 
329 1 -11.6469 -22.6 0 
230 1 -11.0638 -23.5583 0 
331 1 -10.5195 -22.5559 0 
232 1 -9.93674 -23.5152 0 
333 1 -9.39252 -22.5119 0 
234 1 -8.8101 -23.4718 0 
236 1 -7.68393 -23.4288 0 
238 1 -6.55844 -23.3859 0 
240 1 -5.43329 -23.3432 0 
242 1 -4.30867 -23.3011 0 
244 1 -3.18458 -23.2598 0 
246 1 -2.06097 -23.2193 0 
248 1 -0.937715 -23.18 0 
250 1 0.185194 -23.1416 0 
252 1 1.30792 -23.1046 0 
254 1 2.43039 -23.0692 0 
256 1 3.55272 -23.0351 0 
258 1 4.67496 -23.0027 0 
260 1 5.79719 -22.9718 0 
262 1 6.91943 -22.9428 0 
264 1 8.04167 -22.9153 0 
266 1 9.16399 -22.8894 0 
268 1 10.2865 -22.8654 0 
270 1 11.4091 -22.8426 0 
272 1 12.5319 -22.8214 0 
274 1 13.6551 -22.8014 0 
276 1 14.7784 -22.783 0 
278 1 15.9019 -22.7659 0 
280 1 17.0256 -22.7497 0 
282 1 18.1495 -22.7347 0 
284 1 19.2737 -22.7206 0 
286 1 20.3981 -22.7073 0 
288 1 21.5227 -22.695 0 
290 1 22.6474 -22.6836 0 
292 1 23.7725 -22.6729 0 
294 1 24.8975 -22.6627 0 
297 2 26.5987 -23.6355 0 
296 2 26.0228 -22.6533 0 
299 2 27.7248 -23.6273 0 
298 2 27.149 -22.6452 0 
300 2 28.2755 -22.6376 0 
302 2 -26.9167 -22.1747 0 
304 2 -25.7871 -22.1385 0 
306 2 -24.6574 -22.1018 0 
308 1 -23.5268 -22.0632 0 
310 1 -22.3962 -22.0233 0 
312 1 -21.2658 -21.9832 0 
314 1 -20.1356 -21.9425 0 
316 1 -19.0055 -21.9011 0 
318 1 -17.8756 -21.8593 0 
320 1 -16.7459 -21.8169 0 
322 1 -15.6165 -21.7741 0 
324 1 -14.4874 -21.7308 0 
326 1 -13.3586 -21.6869 0 
328 1 -12.2305 -21.6424 0 
330 1 -11.1027 -21.5977 0 
332 1 -9.97522 -21.5527 0 
334 1 -8.84841 -21.5077 0 
335 1 -8.26597 -22.4678 0 
336 1 -7.72217 -21.4625 0 
337 1 -7.14012 -22.4238 0 
338 1 -6.59645 -21.4179 0 
339 1 -6.01481 -22.3802 0 
340 1 -5.47141 -21.3735 0 
341 1 -4.89003 -22.3369 0 
343 1 -3.76568 -22.2944 0 
345 1 -2.64183 -22.2526 0 
347 1 -1.51846 -22.2121 0 
349 1 -0.395368 -22.1726 0 
351 1 0.727453 -22.1344 0 
353 1 1.85013 -22.0978 0 
355 1 2.97262 -22.0628 0 
357 1 4.09503 -22.0293 0 
359 1 5.21746 -21.9975 0 
361 1 6.33997 -21.9676 0 
363 1 7.46242 -21.9393 0 
365 1 8.58498 -21.9128 0 
367 1 9.70773 -21.8879 0 
369 1 10.8306 -21.8647 0 
371 1 11.9537 -21.8429 0 
373 1 13.0769 -21.8224 0 
375 1 14.2005 -21.8034 0 
377 1 15.3244 -21.7859 0 
379 1 16.4483 -21.7695 0 
381 1 17.5725 -21.7541 0 
383 1 18.6968 -21.7398 0 
385 1 19.8214 -21.7264 0 
387 1 20.9462 -21.7138 0 
389 1 22.0712 -21.7021 0 
391 1 23.1963 -21.6913 0 
393 1 24.3214 -21.6809 0 
395 2 25.4466 -21.6709 0 
397 2 26.573 -21.6629 0 
399 2 27.6998 -21.6554 0 
401 2 -27.5037 -21.2208 0 
403 2 -26.3741 -21.1849 0 
402 2 -26.9617 -20.2313 0 
405 2 -25.2445 -21.1483 0 
404 2 -25.8321 -20.1949 0 
407 2 -24.1147 -21.111 0 
409 1 -22.9835 -21.0707 0 
411 1 -21.8527 -21.03 0 
413 1 -20.7223 -20.9891 0 
415 1 -19.5919 -20.9475 0 
417 1 -18.4617 -20.9053 0 
419 1 -17.3317 -20.8626 0 
421 1 -16.2019 -20.8192 0 
423 1 -15.0725 -20.7754 0 
425 1 -13.9434 -20.7309 0 
427 1 -12.8147 -20.6859 0 
429 1 -11.6865 -20.6403 0 
431 1 -10.5588 -20.5947 0 
433 1 -9.4315 -20.5485 0 
435 1 -8.30489 -20.5024 0 
437 1 -7.17875 -20.4566 0 
439 1 -6.05332 -20.411 0 
342 1 -4.34694 -21.3297 0 
441 1 -4.92861 -20.3659 0 
344 1 -3.22295 -21.2867 0 
443 1 -3.80433 -20.3216 0 
346 1 -2.09934 -21.2447 0 
445 1 -2.68051 -20.2781 0 
348 1 -0.976073 -21.2042 0 
447 1 -1.55696 -20.2362 0 
350 1 0.146906 -21.1647 0 
352 1 1.26967 -21.1269 0 
354 1 2.39234 -21.0908 0 
356 1 3.51499 -21.0562 0 
358 1 4.63765 -21.0235 0 
360 1 5.76032 -20.9927 0 
362 1 6.88293 -20.9634 0 
364 1 8.0057 -20.9361 0 
366 1 9.12863 -20.9106 0 
368 1 10.2517 -20.8866 0 
370 1 11.3749 -20.8644 0 
372 1 12.4984 -20.8435 0 
374 1 13.6222 -20.8241 0 
376 1 14.7462 -20.806 0 
378 1 15.8705 -20.7892 0 
380 1 16.9949 -20.7735 0 
382 1 18.1195 -20.7589 0 
384 1 19.2443 -20.7453 0 
386 1 20.3693 -20.7326 0 
388 1 21.4945 -20.7207 0 
390 1 22.6199 -20.7096 0 
392 1 23.7454 -20.6991 0 
394 1 24.871 -20.6891 0 
396 2 25.9969 -20.6804 0 
398 2 27.1238 -20.673 0 
400 2 28.251 -20.6661 0 
501 2 -27.5497 -19.2779 0 
503 2 -26.4202 -19.2417 0 
505 2 -25.2906 -19.2049 0 
406 2 -24.7023 -20.1579 0 
507 2 -24.1608 -19.1673 0 
408 1 -23.5715 -20.1188 0 
509 1 -23.0295 -19.1262 0 
410 1 -22.4406 -20.0777 0 
511 1 -21.8984 -19.0843 0 
412 1 -21.3098 -20.0363 0 
513 1 -20.7674 -19.0421 0 
414 1 -20.1792 -19.9945 0 
416 1 -19.0487 -19.952 0 
418 1 -17.9184 -19.9089 0 
420 1 -16.7883 -19.8652 0 
422 1 -15.6584 -19.8208 0 
424 1 -14.5289 -19.7757 0 
426 1 -13.3997 -19.7303 0 
428 1 -12.271 -19.684 0 
430 1 -11.1428 -19.6374 0 
432 1 -10.0152 -19.5905 0 
434 1 -8.88814 -19.5432 0 
436 1 -7.7616 -19.4963 0 
438 1 -6.63583 -19.4495 0 
440 1 -5.51066 -19.4029 0 
442 1 -4.3861 -19.3573 0 
444 1 -3.26197 -19.3123 0 
446 1 -2.13819 -19.2689 0 
448 1 -1.01487 -19.2269 0 
449 1 -0.433853 -20.1956 0 
450 1 0.10806 -19.1863 0 
451 1 0.688954 -20.1564 0 
452 1 1.23081 -19.1476 0 
453 1 1.81167 -20.119 0 
454 1 2.35358 -19.1109 0 
455 1 2.93441 -20.0835 0 
456 1 3.47644 -19.076 0 
457 1 4.05724 -20.0497 0 
459 1 5.18008 -20.0179 0 
461 1 6.30291 -19.9877 0 
463 1 7.42593 -19.9595 0 
465 1 8.54913 -19.9332 0 
467 1 9.67242 -19.9085 0 
469 1 10.796 -19.8857 0 
471 1 11.9197 -19.8643 0 
473 1 13.0436 -19.8446 0 
475 1 14.1679 -19.8261 0 
477 1 15.2923 -19.8088 0 
479 1 16.417 -19.7929 0 
481 1 17.5419 -19.7781 0 
483 1 18.667 -19.7641 0 
485 1 19.7923 -19.7512 0 
487 1 20.9177 -19.7392 0 
489 1 22.0432 -19.7279 0 
491 1 23.1688 -19.7174 0 
493 1 24.2946 -19.7074 0 
495 2 25.4205 -19.6978 0 
497 2 26.5477 -19.6905 0 
499 2 27.6751 -19.6838 0 
502 2 -27.0088 -18.2886 0 
504 2 -25.8793 -18.252 0 
506 2 -24.7497 -18.2147 0 
508 1 -23.6187 -18.175 0 
510 1 -22.4877 -18.1331 0 
512 1 -21.3566 -18.0906 0 
514 1 -20.2255 -18.0476 0 
515 1 -19.6366 -18.9994 0 
516 1 -19.0947 -18.0039 0 
517 1 -18.506 -18.956 0 
518 1 -17.9638 -17.9596 0 
519 1 -17.3755 -18.9119 0 
520 1 -16.8332 -17.9145 0 
521 1 -16.2453 -18.8672 0 
523 1 -15.1153 -18.8216 0 
525 1 -13.9856 -18.7756 0 
527 1 -12.8565 -18.7288 0 
529 1 -11.7279 -18.6814 0 
531 1 -10.5998 -18.6334 0 
533 1 -9.47227 -18.5853 0 
535 1 -8.34521 -18.5371 0 
537 1 -7.2189 -18.489 0 
539 1 -6.09327 -18.4411 0 
541 1 -4.96834 -18.3937 0 
543 1 -3.84401 -18.3475 0 
545 1 -2.71998 -18.3024 0 
547 1 -1.59651 -18.2589 0 
549 1 -0.473367 -18.2168 0 
551 1 0.649561 -18.1766 0 
553 1 1.77243 -18.1386 0 
555 1 2.8954 -18.1026 0 
557 1 4.01849 -18.0686 0 
458 1 4.59939 -19.0432 0 
559 1 5.14169 -18.0368 0 
460 1 5.72245 -19.0122 0 
561 1 6.26504 -18.0067 0 
462 1 6.84567 -18.9831 0 
563 1 7.38872 -17.9787 0 
464 1 7.96912 -18.9559 0 
565 1 8.51261 -17.9527 0 
466 1 9.09276 -18.9305 0 
567 1 9.63668 -17.9284 0 
468 1 10.2166 -18.9071 0 
569 1 10.7609 -17.9061 0 
470 1 11.3406 -18.8852 0 
472 1 12.4647 -18.8648 0 
474 1 13.5892 -18.846 0 
476 1 14.7139 -18.8284 0 
478 1 15.8388 -18.8121 0 
480 1 16.9638 -18.7971 0 
482 1 18.089 -18.783 0 
484 1 19.2146 -18.7698 0 
486 1 20.3404 -18.7576 0 
488 1 21.4663 -18.7462 0 
490 1 22.5922 -18.7356 0 
492 1 23.7183 -18.7256 0 
494 1 24.8447 -18.716 0 
496 2 25.9714 -18.7078 0 
498 2 27.0991 -18.7012 0 
500 2 28.2271 -18.6951 0 
601 2 -27.5979 -17.3354 0 
603 2 -26.4686 -17.2992 0 
605 2 -25.3391 -17.2621 0 
607 2 -24.2094 -17.2244 0 
609 1 -23.078 -17.1823 0 
611 1 -21.9466 -17.1396 0 
613 1 -20.8154 -17.0965 0 
615 1 -19.6843 -17.0525 0 
617 1 -18.5532 -17.0082 0 
619 1 -17.4221 -16.9628 0 
522 1 -15.7029 -17.8686 0 
621 1 -16.2913 -16.9165 0 
524 1 -14.5727 -17.8219 0 
623 1 -15.1608 -16.8694 0 
526 1 -13.443 -17.7746 0 
625 1 -14.0305 -16.8214 0 
528 1 -12.3139 -17.7264 0 
627 1 -12.9008 -16.7726 0 
530 1 -11.1852 -17.6776 0 
532 1 -10.0572 -17.6284 0 
534 1 -8.92961 -17.5792 0 
536 1 -7.80281 -17.5297 0 
538 1 -6.67661 -17.4804 0 
540 1 -5.55123 -17.4315 0 
542 1 -4.42649 -17.3835 0 
544 1 -3.30222 -17.3369 0 
546 1 -2.17853 -17.2916 0 
548 1 -1.05518 -17.248 0 
550 1 0.0679668 -17.2062 0 
552 1 1.19098 -17.1667 0 
554 1 2.31405 -17.1293 0 
556 1 3.43719 -17.0941 0 
558 1 4.56048 -17.0613 0 
560 1 5.68387 -17.0304 0 
562 1 6.80766 -17.0016 0 
564 1 7.93176 -16.9748 0 
566 1 9.05608 -16.9499 0 
568 1 10.1806 -16.9268 0 
571 1 11.8854 -17.8851 0 
570 1 11.3055 -16.9054 0 
573 1 13.0101 -17.8659 0 
572 1 12.4306 -16.8857 0 
575 1 14.135 -17.8479 0 
574 1 13.5558 -16.8674 0 
577 1 15.2601 -17.8312 0 
576 1 14.6812 -16.8503 0 
579 1 16.3855 -17.8159 0 
578 1 15.8068 -16.8348 0 
581 1 17.511 -17.8016 0 
580 1 16.9327 -16.8202 0 
583 1 18.6368 -17.7884 0 
582 1 18.0588 -16.8068 0 
585 1 19.763 -17.7761 0 
584 1 19.1852 -16.7944 0 
587 1 20.8892 -17.7644 0 
586 1 20.3117 -16.7826 0 
589 1 22.0155 -17.7537 0 
588 1 21.4383 -16.7717 0 
591 1 23.1419 -17.7438 0 
590 1 22.5652 -16.7618 0 
593 1 24.2683 -17.7342 0 
592 1 23.6921 -16.7524 0 
595 2 25.3948 -17.725 0 
594 1 24.8191 -16.7432 0 
596 2 25.9465 -16.7357 0 
597 2 26.5229 -17.7186 0 
598 2 27.0751 -16.7299 0 
599 2 27.6512 -17.7126 0 
600 2 28.2039 -16.7246 0 
602 2 -27.0583 -16.3463 0 
604 2 -25.929 -16.3096 0 
606 2 -24.7995 -16.2721 0 
608 1 -23.6687 -16.2319 0 
610 1 -22.5375 -16.1893 0 
612 1 -21.4061 -16.146 0 
614 1 -20.2749 -16.1021 0 
616 1 -19.1435 -16.0575 0 
618 1 -18.0121 -16.012 0 
620 1 -16.881 -15.9654 0 
622 1 -15.75 -15.9179 0 
624 1 -14.6193 -15.8695 0 
626 1 -13.489 -15.82 0 
628 1 -12.3591 -15.7697 0 
629 1 -11.7716 -16.7231 0 
630 1 -11.2298 -15.7186 0 
631 1 -10.643 -16.6729 0 
632 1 -10.1011 -15.6671 0 
633 1 -9.51484 -16.6225 0 
634 1 -8.97312 -15.6151 0 
635 1 -8.38748 -16.5717 0 
637 1 -7.26083 -16.5211 0 
639 1 -6.13487 -16.4705 0 
641 1 -5.00973 -16.4208 0 
643 1 -3.88512 -16.3724 0 
645 1 -2.76112 -16.3252 0 
647 1 -1.63748 -16.2798 0 
649 1 -0.514212 -16.2363 0 
651 1 0.608922 -16.1951 0 
653 1 1.73198 -16.1562 0 
655 1 2.8552 -16.1197 0 
657 1 3.97871 -16.0858 0 
659 1 5.10239 -16.054 0 
661 1 6.22623 -16.0245 0 
663 1 7.35039 -15.997 0 
665 1 8.47491 -15.9714 0 
667 1 9.59977 -15.9476 0 
669 1 10.7249 -15.9257 0 
671 1 11.8504 -15.9055 0 
673 1 12.9759 -15.8867 0 
675 1 14.1017 -15.8694 0 
677 1 15.2278 -15.8535 0 
679 1 16.354 -15.8387 0 
681 1 17.4805 -15.8252 0 
683 1 18.6071 -15.8126 0 
685 1 19.7339 -15.8007 0 
687 1 20.8609 -15.7898 0 
689 1 21.9881 -15.7798 0 
691 1 23.1154 -15.7703 0 
693 1 24.2426 -15.7614 0 
695 2 25.3699 -15.7527 0 
697 2 26.4989 -15.7471 0 
699 2 27.6281 -15.742 0 
701 2 -27.6483 -15.3934 0 
703 2 -26.5193 -15.357 0 
705 2 -25.3901 -15.3199 0 
707 2 -24.2607 -15.282 0 
709 1 -23.1292 -15.2393 0 
711 1 -21.9978 -15.1961 0 
713 1 -20.8663 -15.1521 0 
715 1 -19.7348 -15.1075 0 
717 1 -18.6032 -15.0619 0 
719 1 -17.4717 -15.0152 0 
721 1 -16.3403 -14.9675 0 
723 1 -15.2092 -14.9185 0 
725 1 -14.0784 -14.8687 0 
727 1 -12.9478 -14.8178 0 
729 1 -11.8178 -14.7658 0 
731 1 -10.6884 -14.7131 0 
733 1 -9.55976 -14.66 0 
636 1 -7.84592 -15.563 0 
735 1 -8.43191 -14.6064 0 
638 1 -6.71948 -15.511 0 
737 1 -7.30481 -14.5529 0 
640 1 -5.59375 -15.4592 0 
739 1 -6.17861 -14.4993 0 
642 1 -4.46872 -15.4089 0 
644 1 -3.34448 -15.3598 0 
646 1 -2.22053 -15.3124 0 
648 1 -1.09698 -15.2669 0 
650 1 0.026258 -15.224 0 
652 1 1.14938 -15.1835 0 
654 1 2.27269 -15.1457 0 
656 1 3.39629 -15.1104 0 
658 1 4.52011 -15.0776 0 
660 1 5.64423 -15.0472 0 
662 1 6.76856 -15.019 0 
664 1 7.89336 -14.9927 0 
666 1 9.01855 -14.9683 0 
668 1 10.144 -14.946 0 
670 1 11.2696 -14.9252 0 
672 1 12.3955 -14.9059 0 
674 1 13.5217 -14.8883 0 
676 1 14.6483 -14.8721 0 
678 1 15.7751 -14.8572 0 
680 1 16.9019 -14.8434 0 
682 1 18.0289 -14.8307 0 
684 1 19.156 -14.8188 0 
686 1 20.2834 -14.8078 0 
688 1 21.411 -14.7978 0 
690 1 22.5386 -14.7884 0 
692 1 23.6664 -14.7794 0 
694 1 24.7944 -14.771 0 
696 2 25.9226 -14.7642 0 
698 2 27.0521 -14.7592 0 
700 2 28.1818 -14.7547 0 
702 2 -27.11 -14.4044 0 
801 2 -27.7009 -13.4516 0 
704 2 -25.9811 -14.3676 0 
803 2 -26.5724 -13.4152 0 
706 2 -24.852 -14.3301 0 
805 2 -25.4437 -13.3781 0 
708 1 -23.7214 -14.2897 0 
807 2 -24.3146 -13.3401 0 
710 1 -22.5902 -14.2466 0 
809 1 -23.1834 -13.2973 0 
712 1 -21.4588 -14.2027 0 
714 1 -20.3272 -14.158 0 
716 1 -19.1955 -14.1125 0 
718 1 -18.0637 -14.0658 0 
720 1 -16.9319 -14.018 0 
722 1 -15.8004 -13.9688 0 
724 1 -14.6691 -13.9185 0 
726 1 -13.5379 -13.8671 0 
728 1 -12.4073 -13.8144 0 
730 1 -11.2773 -13.7609 0 
732 1 -10.1478 -13.7065 0 
734 1 -9.0192 -13.6516 0 
736 1 -7.89132 -13.5964 0 
738 1 -6.76443 -13.541 0 
740 1 -5.63837 -13.4864 0 
741 1 -5.053 -14.4468 0 
742 1 -4.51327 -13.4325 0 
743 1 -3.92834 -14.3953 0 
744 1 -3.38874 -13.3806 0 
745 1 -2.80418 -14.3459 0 
746 1 -2.26489 -13.3306 0 
747 1 -1.68052 -14.2984 0 
749 1 -0.557145 -14.2534 0 
751 1 0.566162 -14.2112 0 
753 1 1.68961 -14.1718 0 
755 1 2.81318 -14.1353 0 
757 1 3.93705 -14.1013 0 
759 1 5.06144 -14.0699 0 
761 1 6.18621 -14.0409 0 
763 1 7.31126 -14.014 0 
765 1 8.43667 -13.989 0 
767 1 9.56245 -13.966 0 
769 1 10.6885 -13.9448 0 
771 1 11.8148 -13.9252 0 
773 1 12.9415 -13.9072 0 
775 1 14.0683 -13.8907 0 
777 1 15.1955 -13.8756 0 
779 1 16.3229 -13.8615 0 
781 1 17.4504 -13.8488 0 
783 1 18.5779 -13.8368 0 
785 1 19.7057 -13.8257 0 
787 1 20.8336 -13.8157 0 
789 1 21.9617 -13.8063 0 
791 1 23.0899 -13.7975 0 
793 1 24.2182 -13.7892 0 
795 2 25.3462 -13.7811 0 
797 2 26.4761 -13.7764 0 
799 2 27.6062 -13.772 0 
802 2 -27.164 -12.4626 0 
804 2 -26.0357 -12.4259 0 
806 2 -24.9071 -12.3884 0 
808 1 -23.7767 -12.348 0 
810 1 -22.6459 -12.3047 0 
811 1 -22.0521 -13.2536 0 
812 1 -21.5147 -12.2605 0 
813 1 -20.9206 -13.2091 0 
814 1 -20.3832 -12.2154 0 
815 1 -19.7888 -13.1638 0 
816 1 -19.2514 -12.1691 0 
817 1 -18.657 -13.1171 0 
818 1 -18.1194 -12.1215 0 
819 1 -17.525 -13.0694 0 
821 1 -16.3931 -13.0202 0 
823 1 -15.2613 -12.9696 0 
825 1 -14.1296 -12.9179 0 
827 1 -12.9983 -12.8646 0 
829 1 -11.8675 -12.8103 0 
831 1 -10.7372 -12.7549 0 
833 1 -9.60761 -12.6985 0 
835 1 -8.47888 -12.6417 0 
837 1 -7.35116 -12.5844 0 
839 1 -6.22447 -12.5276 0 
841 1 -5.09888 -12.4714 0 
843 1 -3.97403 -12.4167 0 
845 1 -2.85002 -12.3641 0 
748 1 -1.14135 -13.2834 0 
847 1 -1.72624 -12.3143 0 
849 1 -0.602635 -12.2679 0 
750 1 -0.0179269 -13.2394 0 
851 1 0.520945 -12.2249 0 
752 1 1.10557 -13.1983 0 
853 1 1.64475 -12.1852 0 
754 1 2.22933 -13.1601 0 
756 1 3.35331 -13.1249 0 
758 1 4.47788 -13.0926 0 
760 1 5.60301 -13.0628 0 
762 1 6.72842 -13.0352 0 
764 1 7.85419 -13.0096 0 
766 1 8.98035 -12.9861 0 
768 1 10.1068 -12.9643 0 
770 1 11.2336 -12.9444 0 
772 1 12.3608 -12.9262 0 
774 1 13.4882 -12.9092 0 
776 1 14.6157 -12.8939 0 
778 1 15.7435 -12.8797 0 
780 1 16.8717 -12.8666 0 
782 1 17.9997 -12.8546 0 
784 1 19.1277 -12.8435 0 
786 1 20.256 -12.8333 0 
788 1 21.3844 -12.8242 0 
790 1 22.5131 -12.8154 0 
792 1 23.642 -12.8072 0 
794 1 24.7709 -12.7993 0 
796 2 25.9 -12.7934 0 
798 2 27.0306 -12.7893 0 
800 2 28.1612 -12.7854 0 
901 2 -27.7557 -11.5099 0 
903 2 -26.6279 -11.4735 0 
905 2 -25.4997 -11.4364 0 
907 2 -24.3713 -11.3985 0 
909 1 -23.2405 -11.3557 0 
911 1 -22.1095 -11.312 0 
913 1 -20.9783 -11.2673 0 
915 1 -19.8468 -11.2215 0 
917 1 -18.7149 -11.1742 0 
820 1 -16.9873 -12.0725 0 
919 1 -17.5828 -11.1256 0 
822 1 -15.8551 -12.022 0 
921 1 -16.4506 -11.0753 0 
824 1 -14.723 -11.97 0 
923 1 -15.3182 -11.0233 0 
826 1 -13.5911 -11.9164 0 
828 1 -12.4594 -11.8613 0 
830 1 -11.3284 -11.805 0 
832 1 -10.198 -11.7476 0 
834 1 -9.0684 -11.6891 0 
836 1 -7.93981 -11.6299 0 
838 1 -6.81224 -11.5708 0 
840 1 -5.6859 -11.5121 0 
842 1 -4.56062 -11.4546 0 
844 1 -3.43614 -11.3988 0 
846 1 -2.31222 -11.3464 0 
848 1 -1.18846 -11.2972 0 
850 1 -0.0648909 -11.2519 0 
852 1 1.0591 -11.2104 0 
855 1 2.76894 -12.1485 0 
854 1 2.18349 -11.1723 0 
857 1 3.89378 -12.1152 0 
856 1 3.3085 -11.1378 0 
859 1 5.01904 -12.0846 0 
858 1 4.43413 -11.1061 0 
861 1 6.14475 -12.0563 0 
860 1 5.5602 -11.0772 0 
863 1 7.27093 -12.0302 0 
862 1 6.68687 -11.0506 0 
865 1 8.3975 -12.0062 0 
864 1 7.81394 -11.0259 0 
867 1 9.52443 -11.984 0 
869 1 10.6517 -11.9634 0 
871 1 11.7794 -11.9449 0 
873 1 12.9073 -11.9278 0 
875 1 14.0355 -11.912 0 
877 1 15.1638 -11.8976 0 
879 1 16.2922 -11.8845 0 
881 1 17.4208 -11.8723 0 
883 1 18.5495 -11.8611 0 
885 1 19.6783 -11.8509 0 
887 1 20.8073 -11.8418 0 
889 1 21.9364 -11.8332 0 
891 1 23.0656 -11.8251 0 
893 1 24.1947 -11.8174 0 
895 2 25.3239 -11.8103 0 
897 2 26.4549 -11.8064 0 
899 2 27.586 -11.8028 0 
902 2 -27.2202 -10.5209 0 
904 2 -26.0925 -10.4842 0 
906 2 -24.9646 -10.4468 0 
908 1 -23.8352 -10.4065 0 
910 1 -22.7049 -10.3635 0 
912 1 -21.5741 -10.3193 0 
914 1 -20.4429 -10.274 0 
916 1 -19.3114 -10.2273 0 
918 1 -18.1796 -10.1791 0 
920 1 -17.0475 -10.1293 0 
922 1 -15.915 -10.0776 0 
924 1 -14.7824 -10.024 0 
925 1 -14.186 -10.9696 0 
926 1 -13.6498 -9.96858 0 
927 1 -13.0536 -10.9142 0 
928 1 -12.5173 -9.91099 0 
929 1 -11.9217 -10.857 0 
930 1 -11.385 -9.85169 0 
931 1 -10.7904 -10.7986 0 
933 1 -9.65993 -10.7387 0 
935 1 -8.53036 -10.6778 0 
937 1 -7.40168 -10.6164 0 
939 1 -6.2744 -10.5551 0 
941 1 -5.14836 -10.4945 0 
943 1 -4.0234 -10.4356 0 
945 1 -2.89909 -10.3796 0 
947 1 -1.77528 -10.3275 0 
949 1 -0.651552 -10.2793 0 
951 1 0.472581 -10.236 0 
953 1 1.5972 -10.1961 0 
955 1 2.72253 -10.1602 0 
957 1 3.8484 -10.1277 0 
959 1 4.97499 -10.0978 0 
961 1 6.1021 -10.0708 0 
963 1 7.22973 -10.0457 0 
965 1 8.35794 -10.0227 0 
866 1 8.94141 -11.0035 0 
967 1 9.4864 -10.0017 0 
868 1 10.0693 -10.9826 0 
969 1 10.6152 -9.98226 0 
870 1 11.1976 -10.9635 0 
971 1 11.7443 -9.96444 0 
872 1 12.326 -10.9462 0 
973 1 12.8736 -9.94816 0 
874 1 13.4546 -10.9301 0 
975 1 14.0032 -9.93343 0 
876 1 14.5836 -10.9156 0 
977 1 15.1329 -9.91983 0 
878 1 15.7127 -10.9021 0 
979 1 16.2627 -9.90751 0 
880 1 16.8419 -10.8899 0 
981 1 17.3926 -9.89619 0 
882 1 17.9711 -10.8787 0 
983 1 18.5226 -9.88592 0 
884 1 19.1005 -10.8685 0 
985 1 19.6527 -9.87671 0 
886 1 20.23 -10.8593 0 
987 1 20.7828 -9.86828 0 
888 1 21.3595 -10.8508 0 
890 1 22.4892 -10.8429 0 
989 1 21.9129 -9.86048 0 
892 1 23.619 -10.8354 0 
991 1 23.0432 -9.85334 0 
894 1 24.7489 -10.8284 0 
993 1 24.1734 -9.84658 0 
896 2 25.8793 -10.8234 0 
995 2 25.3037 -9.84035 0 
898 2 27.0108 -10.8201 0 
997 2 26.4357 -9.83726 0 
900 2 28.1423 -10.817 0 
999 2 27.5677 -9.8344 0 
1001 2 -27.8125 -9.56805 0 
1003 2 -26.6854 -9.5318 0 
1005 2 -25.5581 -9.49477 0 
1007 2 -24.4305 -9.45693 0 
1009 1 -23.3006 -9.41457 0 
1011 1 -22.1705 -9.37127 0 
1013 1 -21.0398 -9.32659 0 
1015 1 -19.9087 -9.28049 0 
1017 1 -18.7773 -9.23287 0 
1019 1 -17.6455 -9.18369 0 
1021 1 -16.5134 -9.13259 0 
1023 1 -15.3809 -9.07947 0 
1025 1 -14.2481 -9.02418 0 
1027 1 -13.1153 -8.96675 0 
1029 1 -11.9824 -8.90704 0 
932 1 -10.2534 -9.79049 0 
1031 1 -10.8498 -8.84491 0 
934 1 -9.12279 -9.72798 0 
1033 1 -9.71785 -8.78088 0 
936 1 -7.99315 -9.66471 0 
1035 1 -8.58682 -8.71556 0 
938 1 -6.86479 -9.60048 0 
940 1 -5.73774 -9.53679 0 
942 1 -4.61207 -9.47427 0 
944 1 -3.48739 -9.41452 0 
946 1 -2.36342 -9.35872 0 
948 1 -1.23963 -9.3075 0 
950 1 -0.115372 -9.26158 0 
952 1 1.00949 -9.22008 0 
954 1 2.13516 -9.18267 0 
956 1 3.26147 -9.14905 0 
958 1 4.38851 -9.11857 0 
960 1 5.51628 -9.09081 0 
962 1 6.64455 -9.06533 0 
964 1 7.77346 -9.042 0 
966 1 8.90281 -9.02051 0 
968 1 10.0324 -9.00094 0 
970 1 11.1623 -8.98287 0 
972 1 12.2924 -8.96628 0 
974 1 13.4226 -8.95122 0 
976 1 14.5529 -8.93748 0 
978 1 15.6833 -8.92499 0 
980 1 16.8139 -8.91371 0 
982 1 17.9446 -8.90322 0 
984 1 19.0753 -8.89395 0 
986 1 20.206 -8.88568 0 
988 1 21.3368 -8.8779 0 
990 1 22.4676 -8.87096 0 
992 1 23.5985 -8.86458 0 
994 1 24.7295 -8.85859 0 
996 2 25.8608 -8.85435 0 
998 2 26.9933 -8.85174 0 
1000 2 28.1257 -8.84931 0 
1002 2 -27.2783 -8.57905 0 
1101 2 -27.8711 -7.62598 0 
1004 2 -26.1516 -8.54247 0 
1103 2 -26.7449 -7.58983 0 
1006 2 -25.0246 -8.50509 0 
1105 2 -25.6186 -7.5529 0 
1008 1 -23.8962 -8.46528 0 
1107 2 -24.492 -7.51516 0 
1010 1 -22.7668 -8.42269 0 
1012 1 -21.637 -8.37895 0 
1014 1 -20.5067 -8.33366 0 
1016 1 -19.3759 -8.28686 0 
1018 1 -18.2447 -8.23837 0 
1020 1 -17.1131 -8.188 0 
1022 1 -15.981 -8.13556 0 
1024 1 -14.8485 -8.08094 0 
1026 1 -13.7155 -8.02383 0 
1028 1 -12.5822 -7.96424 0 
1030 1 -11.4489 -7.90177 0 
1032 1 -10.316 -7.83667 0 
1034 1 -9.18355 -7.7697 0 
1036 1 -8.05236 -7.70051 0 
1037 1 -7.45729 -8.64887 0 
1038 1 -6.92264 -7.63036 0 
1039 1 -6.32902 -8.58191 0 
1041 1 -5.20242 -8.51549 0 
1043 1 -4.07715 -8.45147 0 
1045 1 -2.95288 -8.39128 0 
1047 1 -1.82891 -8.33636 0 
1049 1 -0.70458 -8.28733 0 
1051 1 0.420466 -8.24382 0 
1053 1 1.54639 -8.20503 0 
1055 1 2.6733 -8.17028 0 
1057 1 3.80105 -8.13904 0 
1059 1 4.92961 -8.11084 0 
1061 1 6.05881 -8.08484 0 
1063 1 7.18858 -8.06118 0 
1065 1 8.31868 -8.0394 0 
1067 1 9.44912 -8.01945 0 
1069 1 10.5798 -8.00117 0 
1071 1 11.7108 -7.98447 0 
1073 1 12.8418 -7.96904 0 
1075 1 13.9729 -7.95501 0 
1077 1 15.104 -7.94237 0 
1079 1 16.2353 -7.93099 0 
1081 1 17.3666 -7.92053 0 
1083 1 18.498 -7.91115 0 
1085 1 19.6294 -7.9028 0 
1087 1 20.7607 -7.89523 0 
1089 1 21.8921 -7.88831 0 
1091 1 23.0234 -7.88228 0 
1093 1 24.1547 -7.87655 0 
1095 2 25.2861 -7.87134 0 
1097 2 26.419 -7.86899 0 
1099 2 27.5519 -7.8668 0 
1102 2 -27.3381 -6.63684 0 
1104 2 -26.2124 -6.60035 0 
1106 2 -25.0865 -6.56307 0 
1108 1 -23.9594 -6.52385 0 
1109 1 -23.3635 -7.47372 0 
1110 1 -22.8317 -6.48208 0 
1111 1 -22.2345 -7.43081 0 
1112 1 -21.7034 -6.43883 0 
1113 1 -21.105 -7.38652 0 
1114 1 -20.5744 -6.39405 0 
1115 1 -19.975 -7.34063 0 
1116 1 -19.4451 -6.34738 0 
1117 1 -18.8446 -7.29306 0 
1119 1 -17.7138 -7.24357 0 
1121 1 -16.5824 -7.19199 0 
1123 1 -15.4504 -7.13824 0 
1125 1 -14.3179 -7.08193 0 
1127 1 -13.1847 -7.02288 0 
1129 1 -12.0512 -6.96075 0 
1131 1 -10.9175 -6.89533 0 
1133 1 -9.78382 -6.82714 0 
1135 1 -8.65092 -6.75606 0 
1137 1 -7.51934 -6.68273 0 
1139 1 -6.38985 -6.60812 0 
1040 1 -5.79482 -7.55985 0 
1141 1 -5.26248 -6.53389 0 
1042 1 -4.66873 -7.49099 0 
1143 1 -4.13709 -6.46257 0 
1044 1 -3.54399 -7.42568 0 
1046 1 -2.41981 -7.3662 0 
1048 1 -1.29552 -7.31353 0 
1050 1 -0.170269 -7.26754 0 
1052 1 0.956213 -7.22702 0 
1054 1 2.08372 -7.19139 0 
1056 1 3.2124 -7.15938 0 
1058 1 4.34192 -7.13055 0 
1060 1 5.47205 -7.10435 0 
1062 1 6.60285 -7.0803 0 
1064 1 7.73391 -7.05815 0 
1066 1 8.86524 -7.03795 0 
1068 1 9.99682 -7.01946 0 
1070 1 11.1287 -7.00258 0 
1072 1 12.2606 -6.98695 0 
1074 1 13.3925 -6.97265 0 
1076 1 14.5245 -6.95972 0 
1078 1 15.6566 -6.94822 0 
1080 1 16.7886 -6.93773 0 
1082 1 17.9206 -6.92823 0 
1084 1 19.0527 -6.91992 0 
1086 1 20.1847 -6.9123 0 
1088 1 21.3166 -6.90562 0 
1090 1 22.4486 -6.89966 0 
1092 1 23.5805 -6.89427 0 
1094 1 24.7126 -6.8894 0 
1096 2 25.8451 -6.88616 0 
1098 2 26.9784 -6.88422 0 
1100 2 28.1116 -6.88241 0 
1201 2 -27.9311 -5.68349 0 
1203 2 -26.806 -5.64742 0 