ITEM: TIMESTEP
2200
ITEM: NUMBER OF ATOMS
2850
ITEM: BOX BOUNDS ss ss pp
-28.0536 28.3253 
-28.9988 28.9984 
-0.5 0.5 
ITEM: ATOMS id type xs ys zs
1 1 0.012661 0.000000 0.500000 
2 1 0.032688 0.000597 0.500000 
3 1 0.052715 0.001202 0.500000 
4 1 0.072742 0.001814 0.500000 
5 1 0.092767 0.002433 0.500000 
6 1 0.112794 0.003060 0.500000 
7 1 0.132817 0.003697 0.500000 
8 1 0.152841 0.004338 0.500000 
9 1 0.172861 0.004988 0.500000 
10 1 0.192879 0.005643 0.500000 
11 1 0.212895 0.006305 0.500000 
12 1 0.232906 0.006973 0.500000 
13 1 0.252912 0.007645 0.500000 
14 1 0.272914 0.008319 0.500000 
15 1 0.292911 0.008997 0.500000 
16 1 0.312901 0.009676 0.500000 
17 1 0.332885 0.010356 0.500000 
18 1 0.352861 0.011033 0.500000 
19 1 0.372830 0.011707 0.500000 
20 1 0.392791 0.012376 0.500000 
21 1 0.022340 0.017073 0.500000 
22 1 0.042369 0.017677 0.500000 
23 1 0.062397 0.018289 0.500000 
24 1 0.082426 0.018911 0.500000 
25 1 0.102455 0.019539 0.500000 
26 1 0.122484 0.020177 0.500000 
27 1 0.142511 0.020822 0.500000 
28 1 0.162536 0.021475 0.500000 
29 1 0.182559 0.022136 0.500000 
30 1 0.202579 0.022803 0.500000 
31 1 0.222596 0.023475 0.500000 
32 1 0.242610 0.024155 0.500000 
33 1 0.262618 0.024839 0.500000 
34 1 0.282622 0.025527 0.500000 
35 1 0.302619 0.026217 0.500000 
36 1 0.322610 0.026908 0.500000 
37 1 0.342593 0.027600 0.500000 
38 1 0.362570 0.028289 0.500000 
39 1 0.382537 0.028974 0.500000 
40 1 0.402497 0.029655 0.500000 
41 1 0.412744 0.013039 0.500000 
42 1 0.422448 0.030326 0.500000 
43 1 0.432688 0.013694 0.500000 
44 1 0.442390 0.030989 0.500000 
45 1 0.452624 0.014337 0.500000 
46 1 0.462324 0.031639 0.500000 
47 1 0.472553 0.014968 0.500000 
48 1 0.482250 0.032276 0.500000 
49 1 0.492474 0.015584 0.500000 
50 1 0.512388 0.016184 0.500000 
51 1 0.532295 0.016766 0.500000 
52 1 0.552198 0.017330 0.500000 
53 1 0.572095 0.017873 0.500000 
54 1 0.591989 0.018396 0.500000 
55 1 0.611880 0.018896 0.500000 
56 1 0.631769 0.019373 0.500000 
57 1 0.651657 0.019829 0.500000 
58 1 0.671546 0.020261 0.500000 
59 1 0.691436 0.020670 0.500000 
60 1 0.711328 0.021058 0.500000 
61 1 0.731222 0.021423 0.500000 
62 1 0.751120 0.021768 0.500000 
63 1 0.771021 0.022094 0.500000 
64 1 0.790927 0.022399 0.500000 
65 1 0.810837 0.022687 0.500000 
66 1 0.830751 0.022958 0.500000 
67 1 0.850671 0.023211 0.500000 
68 1 0.870595 0.023449 0.500000 
69 1 0.890525 0.023674 0.500000 
70 1 0.910459 0.023884 0.500000 
71 1 0.930398 0.024080 0.500000 
72 1 0.950341 0.024267 0.500000 
73 1 0.970290 0.024443 0.500000 
74 1 0.990243 0.024606 0.500000 
75 1 0.011983 0.033545 0.500000 
76 1 0.032014 0.034148 0.500000 
77 1 0.021650 0.050615 0.500000 
78 1 0.052044 0.034760 0.500000 
79 1 0.041680 0.051227 0.500000 
80 1 0.072075 0.035381 0.500000 
81 1 0.061715 0.051847 0.500000 
82 1 0.092107 0.036012 0.500000 
83 1 0.081764 0.052469 0.500000 
84 1 0.112138 0.036650 0.500000 
85 1 0.132168 0.037297 0.500000 
86 1 0.152197 0.037952 0.500000 
87 1 0.172226 0.038617 0.500000 
88 1 0.192251 0.039288 0.500000 
89 1 0.212274 0.039967 0.500000 
90 1 0.232293 0.040654 0.500000 
91 1 0.252309 0.041345 0.500000 
92 1 0.272318 0.042042 0.500000 
93 1 0.292324 0.042743 0.500000 
94 1 0.312323 0.043447 0.500000 
95 1 0.332314 0.044150 0.500000 
96 1 0.352297 0.044856 0.500000 
97 1 0.372273 0.045557 0.500000 
98 1 0.392240 0.046254 0.500000 
99 1 0.412198 0.046944 0.500000 
100 1 0.432147 0.047626 0.500000 
101 1 0.452087 0.048297 0.500000 
102 1 0.472018 0.048954 0.500000 
103 1 0.502167 0.032896 0.500000 
104 1 0.491940 0.049595 0.500000 
105 1 0.522078 0.033498 0.500000 
106 1 0.511855 0.050220 0.500000 
107 1 0.541983 0.034081 0.500000 
108 1 0.531762 0.050823 0.500000 
109 1 0.561882 0.034643 0.500000 
110 1 0.551663 0.051406 0.500000 
111 1 0.581777 0.035184 0.500000 
112 1 0.571560 0.051966 0.500000 
113 1 0.601668 0.035702 0.500000 
114 1 0.591452 0.052503 0.500000 
115 1 0.621558 0.036195 0.500000 
116 1 0.641446 0.036666 0.500000 
117 1 0.661334 0.037110 0.500000 
118 1 0.681223 0.037533 0.500000 
119 1 0.701115 0.037931 0.500000 
120 1 0.721007 0.038307 0.500000 
121 1 0.740905 0.038660 0.500000 
122 1 0.760806 0.038993 0.500000 
123 1 0.780711 0.039305 0.500000 
124 1 0.800620 0.039597 0.500000 
125 1 0.820536 0.039873 0.500000 
126 1 0.840456 0.040130 0.500000 
127 1 0.860382 0.040369 0.500000 
128 1 0.880312 0.040595 0.500000 
129 1 0.900248 0.040807 0.500000 
130 1 0.920188 0.041005 0.500000 
131 1 0.940134 0.041192 0.500000 
132 1 0.960084 0.041368 0.500000 
133 1 0.980040 0.041531 0.500000 
134 1 1.000000 0.041686 0.500000 
135 1 0.011275 0.067077 0.500000 
136 1 0.031308 0.067688 0.500000 
137 1 0.051342 0.068307 0.500000 
138 1 0.071376 0.068936 0.500000 
139 1 0.091429 0.069583 0.500000 
140 1 0.101808 0.053129 0.500000 
141 1 0.111474 0.070262 0.500000 
142 1 0.121849 0.053800 0.500000 
143 1 0.131524 0.070948 0.500000 
144 1 0.141873 0.054463 0.500000 
145 1 0.151565 0.071618 0.500000 
146 1 0.161903 0.055127 0.500000 
147 1 0.171613 0.072291 0.500000 
148 1 0.181951 0.055799 0.500000 
149 1 0.201987 0.056495 0.500000 
150 1 0.222006 0.057176 0.500000 
151 1 0.242024 0.057877 0.500000 
152 1 0.262029 0.058580 0.500000 
153 1 0.282034 0.059301 0.500000 
154 1 0.302048 0.060021 0.500000 
155 1 0.322036 0.060727 0.500000 
156 1 0.342032 0.061432 0.500000 
157 1 0.362020 0.062185 0.500000 
158 1 0.381972 0.062910 0.500000 
159 1 0.401938 0.063594 0.500000 
160 1 0.421888 0.064306 0.500000 
161 1 0.441814 0.064997 0.500000 
162 1 0.461748 0.065678 0.500000 
163 1 0.481660 0.066345 0.500000 
164 1 0.501576 0.066976 0.500000 
165 1 0.521476 0.067615 0.500000 
166 1 0.541375 0.068192 0.500000 
167 1 0.561270 0.068755 0.500000 
168 1 0.581158 0.069305 0.500000 
169 1 0.601063 0.069834 0.500000 
170 1 0.611341 0.053013 0.500000 
171 1 0.620948 0.070325 0.500000 
172 1 0.631230 0.053499 0.500000 
173 1 0.640833 0.070787 0.500000 
174 1 0.651117 0.053960 0.500000 
175 1 0.671006 0.054396 0.500000 
176 1 0.660725 0.071251 0.500000 
177 1 0.690897 0.054806 0.500000 
178 1 0.680627 0.071671 0.500000 
179 1 0.710789 0.055192 0.500000 
180 1 0.700527 0.072051 0.500000 
181 1 0.730685 0.055554 0.500000 
182 1 0.720425 0.072424 0.500000 
183 1 0.750586 0.055894 0.500000 
184 1 0.770490 0.056213 0.500000 
185 1 0.790400 0.056511 0.500000 
186 1 0.810316 0.056789 0.500000 
187 1 0.830238 0.057049 0.500000 
188 1 0.850164 0.057294 0.500000 
189 1 0.870095 0.057522 0.500000 
190 1 0.890032 0.057734 0.500000 
191 1 0.909975 0.057934 0.500000 
192 1 0.929922 0.058120 0.500000 
193 1 0.949875 0.058294 0.500000 
194 1 0.969833 0.058458 0.500000 
195 1 0.989796 0.058613 0.500000 
196 1 0.020924 0.084144 0.500000 
197 1 0.040959 0.084763 0.500000 
198 1 0.060994 0.085390 0.500000 
199 1 0.081054 0.086045 0.500000 
200 1 0.101101 0.086715 0.500000 
201 1 0.121158 0.087396 0.500000 
202 1 0.141214 0.088095 0.500000 
203 1 0.161263 0.088778 0.500000 
204 1 0.191656 0.072987 0.500000 
205 1 0.181308 0.089469 0.500000 
206 1 0.211701 0.073692 0.500000 
207 1 0.201342 0.090170 0.500000 
208 1 0.221369 0.090908 0.500000 
209 1 0.231721 0.074402 0.500000 
210 1 0.241398 0.091642 0.500000 
211 1 0.251735 0.075126 0.500000 
212 1 0.261422 0.092408 0.500000 
213 1 0.271721 0.075860 0.500000 
214 1 0.291733 0.076576 0.500000 
215 1 0.311753 0.077316 0.500000 
216 1 0.331747 0.078009 0.500000 
217 1 0.351726 0.078744 0.500000 
218 1 0.371688 0.079550 0.500000 
219 1 0.391639 0.080238 0.500000 
220 1 0.411569 0.080968 0.500000 
221 1 0.431506 0.081709 0.500000 
222 1 0.451438 0.082375 0.500000 
223 1 0.471360 0.083090 0.500000 
224 1 0.491277 0.083740 0.500000 
225 1 0.511178 0.084371 0.500000 
226 1 0.531084 0.084972 0.500000 
227 1 0.550979 0.085546 0.500000 
228 1 0.570867 0.086122 0.500000 
229 1 0.590767 0.086641 0.500000 
230 1 0.610657 0.087151 0.500000 
231 1 0.630561 0.087623 0.500000 
232 1 0.650468 0.088090 0.500000 
233 1 0.670375 0.088522 0.500000 
234 1 0.690267 0.088926 0.500000 
235 1 0.710165 0.089295 0.500000 
236 1 0.730102 0.089638 0.500000 
237 1 0.740337 0.072762 0.500000 
238 1 0.750023 0.089964 0.500000 
239 1 0.760251 0.073105 0.500000 
240 1 0.769951 0.090280 0.500000 
241 1 0.780169 0.073391 0.500000 
242 1 0.789875 0.090567 0.500000 
243 1 0.800101 0.073689 0.500000 
244 1 0.809810 0.090848 0.500000 
245 1 0.820026 0.073947 0.500000 
246 1 0.829736 0.091106 0.500000 
247 1 0.839948 0.074211 0.500000 
248 1 0.849676 0.091354 0.500000 
249 1 0.859880 0.074425 0.500000 
250 1 0.869620 0.091554 0.500000 
251 1 0.879829 0.074640 0.500000 
252 1 0.889570 0.091752 0.500000 
253 1 0.899783 0.074852 0.500000 
254 1 0.909519 0.091964 0.500000 
255 1 0.919714 0.075040 0.500000 
256 1 0.929461 0.092132 0.500000 
257 1 0.939656 0.075209 0.500000 
258 1 0.949407 0.092323 0.500000 
259 1 0.959621 0.075390 0.500000 
260 1 0.979588 0.075542 0.500000 
261 1 0.999557 0.075685 0.500000 
262 1 0.010532 0.100598 0.500000 
263 1 0.030566 0.101214 0.500000 
264 1 0.050602 0.101839 0.500000 
265 1 0.070640 0.102476 0.500000 
266 1 0.090722 0.103168 0.500000 
267 1 0.110780 0.103854 0.500000 
268 1 0.130828 0.104554 0.500000 
269 1 0.150895 0.105246 0.500000 
270 1 0.170950 0.105952 0.500000 
271 1 0.190964 0.106658 0.500000 
272 1 0.210989 0.107376 0.500000 
273 1 0.231034 0.108130 0.500000 
274 1 0.251070 0.108904 0.500000 
275 1 0.271110 0.109648 0.500000 
276 1 0.281438 0.093123 0.500000 
277 1 0.291115 0.110387 0.500000 
278 1 0.301441 0.093862 0.500000 
279 1 0.311117 0.111138 0.500000 
280 1 0.321451 0.094599 0.500000 
281 1 0.331119 0.111916 0.500000 
282 1 0.341424 0.095325 0.500000 
283 1 0.361381 0.096119 0.500000 
284 1 0.381363 0.096878 0.500000 
285 1 0.401297 0.097626 0.500000 
286 1 0.421224 0.098371 0.500000 
287 1 0.441166 0.099082 0.500000 
288 1 0.461065 0.099804 0.500000 
289 1 0.480991 0.100488 0.500000 
290 1 0.500904 0.101133 0.500000 
291 1 0.520792 0.101746 0.500000 
292 1 0.540692 0.102341 0.500000 
293 1 0.560587 0.102916 0.500000 
294 1 0.580498 0.103455 0.500000 
295 1 0.600397 0.103989 0.500000 
296 1 0.620312 0.104454 0.500000 
297 1 0.640216 0.104925 0.500000 
298 1 0.660124 0.105377 0.500000 
299 1 0.680033 0.105797 0.500000 
300 1 0.699945 0.106177 0.500000 
301 1 0.719868 0.106505 0.500000 
302 1 0.739812 0.106850 0.500000 
303 1 0.759730 0.107158 0.500000 
304 1 0.779642 0.107466 0.500000 
305 1 0.799584 0.107741 0.500000 
306 1 0.819529 0.108006 0.500000 
307 1 0.839460 0.108253 0.500000 
308 1 0.859408 0.108473 0.500000 
309 1 0.879359 0.108675 0.500000 
310 1 0.899310 0.108873 0.500000 
311 1 0.919256 0.109063 0.500000 
312 1 0.939198 0.109237 0.500000 
313 1 0.969375 0.092475 0.500000 
314 1 0.959160 0.109410 0.500000 
315 1 0.989349 0.092617 0.500000 
316 1 0.979136 0.109550 0.500000 
317 1 0.999117 0.109681 0.500000 
318 1 0.020165 0.117663 0.500000 
319 1 0.040201 0.118287 0.500000 
320 1 0.060239 0.118920 0.500000 
321 1 0.080305 0.119593 0.500000 
322 1 0.100369 0.120303 0.500000 
323 1 0.120441 0.121014 0.500000 
324 1 0.140506 0.121707 0.500000 
325 1 0.160560 0.122417 0.500000 
326 1 0.180602 0.123143 0.500000 
327 1 0.200629 0.123862 0.500000 
328 1 0.220662 0.124609 0.500000 
329 1 0.240708 0.125374 0.500000 
330 1 0.260759 0.126138 0.500000 
331 1 0.280792 0.126918 0.500000 
332 1 0.300779 0.127679 0.500000 
333 1 0.320756 0.128445 0.500000 
334 1 0.340745 0.129265 0.500000 
335 1 0.351083 0.112701 0.500000 
336 1 0.360727 0.130057 0.500000 
337 1 0.371054 0.113464 0.500000 
338 1 0.380675 0.130841 0.500000 
339 1 0.391017 0.114252 0.500000 
340 1 0.400629 0.131645 0.500000 
341 1 0.410955 0.115022 0.500000 
342 1 0.420581 0.132406 0.500000 
343 1 0.430887 0.115743 0.500000 
344 1 0.450788 0.116511 0.500000 
345 1 0.470693 0.117196 0.500000 
346 1 0.490601 0.117874 0.500000 
347 1 0.510504 0.118530 0.500000 
348 1 0.530406 0.119121 0.500000 
349 1 0.550307 0.119722 0.500000 
350 1 0.570206 0.120268 0.500000 
351 1 0.590106 0.120799 0.500000 
352 1 0.610026 0.121276 0.500000 
353 1 0.629936 0.121768 0.500000 
354 1 0.649843 0.122211 0.500000 
355 1 0.669756 0.122648 0.500000 
356 1 0.689681 0.123040 0.500000 
357 1 0.709616 0.123401 0.500000 
358 1 0.729545 0.123726 0.500000 
359 1 0.749479 0.124061 0.500000 
360 1 0.769408 0.124378 0.500000 
361 1 0.789327 0.124644 0.500000 
362 1 0.809268 0.124915 0.500000 
363 1 0.829226 0.125152 0.500000 
364 1 0.849187 0.125379 0.500000 
365 1 0.869131 0.125600 0.500000 
366 1 0.889085 0.125786 0.500000 
367 1 0.909041 0.125987 0.500000 
368 1 0.928996 0.126166 0.500000 
369 1 0.948940 0.126349 0.500000 
370 1 0.968919 0.126487 0.500000 
371 1 0.988905 0.126616 0.500000 
372 1 0.009754 0.134110 0.500000 
373 1 0.029790 0.134729 0.500000 
374 1 0.019367 0.151171 0.500000 
375 1 0.049825 0.135360 0.500000 
376 1 0.039403 0.151799 0.500000 
377 1 0.069865 0.136003 0.500000 
378 1 0.089953 0.136728 0.500000 
379 1 0.110034 0.137450 0.500000 
380 1 0.130107 0.138168 0.500000 
381 1 0.150172 0.138872 0.500000 
382 1 0.170235 0.139602 0.500000 
383 1 0.190278 0.140345 0.500000 
384 1 0.210314 0.141094 0.500000 
385 1 0.230367 0.141851 0.500000 
386 1 0.250403 0.142626 0.500000 
387 1 0.270417 0.143406 0.500000 
388 1 0.290444 0.144218 0.500000 
389 1 0.310442 0.145003 0.500000 
390 1 0.330418 0.145794 0.500000 
391 1 0.350412 0.146621 0.500000 
392 1 0.370375 0.147454 0.500000 
393 1 0.390313 0.148253 0.500000 
394 1 0.410264 0.149044 0.500000 
395 1 0.440488 0.133181 0.500000 
396 1 0.430186 0.149859 0.500000 
397 1 0.460407 0.133922 0.500000 
398 1 0.450099 0.150613 0.500000 
399 1 0.480298 0.134616 0.500000 
400 1 0.470007 0.151359 0.500000 
401 1 0.500192 0.135283 0.500000 
402 1 0.489906 0.152056 0.500000 
403 1 0.520111 0.135907 0.500000 
404 1 0.540007 0.136515 0.500000 
405 1 0.559903 0.137094 0.500000 
406 1 0.579809 0.137623 0.500000 
407 1 0.599730 0.138099 0.500000 
408 1 0.619650 0.138590 0.500000 
409 1 0.639572 0.139060 0.500000 
410 1 0.659468 0.139505 0.500000 
411 1 0.679378 0.139909 0.500000 
412 1 0.699301 0.140269 0.500000 
413 1 0.719239 0.140618 0.500000 
414 1 0.739187 0.140961 0.500000 
415 1 0.759133 0.141268 0.500000 
416 1 0.779078 0.141574 0.500000 
417 1 0.799010 0.141824 0.500000 
418 1 0.818959 0.142072 0.500000 
419 1 0.838915 0.142282 0.500000 
420 1 0.858886 0.142510 0.500000 
421 1 0.878861 0.142713 0.500000 
422 1 0.898816 0.142901 0.500000 
423 1 0.918790 0.143089 0.500000 
424 1 0.938744 0.143283 0.500000 
425 1 0.958701 0.143428 0.500000 
426 1 0.978689 0.143555 0.500000 
427 1 0.998682 0.143674 0.500000 
428 1 0.008938 0.167610 0.500000 
429 1 0.028972 0.168234 0.500000 
430 1 0.049008 0.168868 0.500000 
431 1 0.059442 0.152437 0.500000 
432 1 0.069047 0.169517 0.500000 
433 1 0.079522 0.153134 0.500000 
434 1 0.089146 0.170274 0.500000 
435 1 0.099594 0.153872 0.500000 
436 1 0.109238 0.171009 0.500000 
437 1 0.119686 0.154601 0.500000 
438 1 0.139771 0.155314 0.500000 
439 1 0.129328 0.171746 0.500000 
440 1 0.159841 0.156044 0.500000 
441 1 0.179903 0.156804 0.500000 
442 1 0.199935 0.157561 0.500000 
443 1 0.219972 0.158312 0.500000 
444 1 0.240029 0.159099 0.500000 
445 1 0.260054 0.159911 0.500000 
446 1 0.280069 0.160688 0.500000 
447 1 0.300101 0.161532 0.500000 
448 1 0.320103 0.162353 0.500000 
449 1 0.340078 0.163154 0.500000 
450 1 0.360046 0.164025 0.500000 
451 1 0.380003 0.164859 0.500000 
452 1 0.399943 0.165668 0.500000 
453 1 0.419864 0.166505 0.500000 
454 1 0.439796 0.167290 0.500000 
455 1 0.459689 0.168072 0.500000 
456 1 0.479576 0.168794 0.500000 
457 1 0.499483 0.169458 0.500000 
458 1 0.509809 0.152688 0.500000 
459 1 0.519385 0.170103 0.500000 
460 1 0.529706 0.153316 0.500000 
461 1 0.539295 0.170717 0.500000 
462 1 0.549610 0.153905 0.500000 
463 1 0.559209 0.171286 0.500000 
464 1 0.569532 0.154457 0.500000 
465 1 0.579124 0.171808 0.500000 
466 1 0.589463 0.154956 0.500000 
467 1 0.609376 0.155441 0.500000 
468 1 0.629288 0.155911 0.500000 
469 1 0.649197 0.156373 0.500000 
470 1 0.669128 0.156788 0.500000 
471 1 0.689058 0.157168 0.500000 
472 1 0.708982 0.157518 0.500000 
473 1 0.728913 0.157850 0.500000 
474 1 0.748863 0.158174 0.500000 
475 1 0.768807 0.158464 0.500000 
476 1 0.788760 0.158745 0.500000 
477 1 0.808705 0.158986 0.500000 
478 1 0.828669 0.159210 0.500000 
479 1 0.848634 0.159423 0.500000 
480 1 0.868606 0.159622 0.500000 
481 1 0.888575 0.159835 0.500000 
482 1 0.908539 0.160009 0.500000 
483 1 0.928504 0.160208 0.500000 
484 1 0.948477 0.160370 0.500000 
485 1 0.968470 0.160496 0.500000 
486 1 0.988467 0.160611 0.500000 
487 1 0.018532 0.184668 0.500000 
488 1 0.038566 0.185299 0.500000 
489 1 0.058602 0.185942 0.500000 
490 1 0.078682 0.186651 0.500000 
491 1 0.098775 0.187407 0.500000 
492 1 0.118852 0.188155 0.500000 
493 1 0.138926 0.188900 0.500000 
494 1 0.149402 0.172478 0.500000 
495 1 0.158997 0.189651 0.500000 
496 1 0.169475 0.173233 0.500000 
497 1 0.179070 0.190431 0.500000 
498 1 0.189534 0.174020 0.500000 
499 1 0.199159 0.191226 0.500000 
500 1 0.209568 0.174776 0.500000 
501 1 0.219221 0.191992 0.500000 
502 1 0.229616 0.175532 0.500000 
503 1 0.249666 0.176374 0.500000 
504 1 0.269712 0.177184 0.500000 
505 1 0.289710 0.177996 0.500000 
506 1 0.309732 0.178864 0.500000 
507 1 0.329737 0.179697 0.500000 
508 1 0.349681 0.180551 0.500000 
509 1 0.369650 0.181417 0.500000 
510 1 0.389614 0.182273 0.500000 
511 1 0.409537 0.183138 0.500000 
512 1 0.429461 0.183942 0.500000 
513 1 0.449359 0.184766 0.500000 
514 1 0.469257 0.185528 0.500000 
515 1 0.489149 0.186223 0.500000 
516 1 0.509043 0.186875 0.500000 
517 1 0.528945 0.187513 0.500000 
518 1 0.548859 0.188104 0.500000 
519 1 0.568788 0.188656 0.500000 
520 1 0.588713 0.189152 0.500000 
521 1 0.599040 0.172301 0.500000 
522 1 0.608645 0.189612 0.500000 
523 1 0.618965 0.172764 0.500000 
524 1 0.628563 0.190086 0.500000 
525 1 0.638880 0.173236 0.500000 
526 1 0.648499 0.190512 0.500000 
527 1 0.658817 0.173649 0.500000 
528 1 0.668424 0.190946 0.500000 
529 1 0.678757 0.174058 0.500000 
530 1 0.688365 0.191323 0.500000 
531 1 0.698691 0.174428 0.500000 
532 1 0.718631 0.174776 0.500000 
533 1 0.738577 0.175072 0.500000 
534 1 0.758523 0.175371 0.500000 
535 1 0.778471 0.175650 0.500000 
536 1 0.798437 0.175904 0.500000 
537 1 0.818402 0.176125 0.500000 
538 1 0.838372 0.176338 0.500000 
539 1 0.858361 0.176546 0.500000 
540 1 0.878320 0.176759 0.500000 
541 1 0.898294 0.176950 0.500000 
542 1 0.918270 0.177129 0.500000 
543 1 0.938272 0.177291 0.500000 
544 1 0.958249 0.177440 0.500000 
545 1 0.978251 0.177553 0.500000 
546 1 0.998258 0.177659 0.500000 
547 1 0.008083 0.201103 0.500000 
548 1 0.028113 0.201727 0.500000 
549 1 0.048147 0.202367 0.500000 
550 1 0.068185 0.203017 0.500000 
551 1 0.088278 0.203783 0.500000 
552 1 0.108364 0.204552 0.500000 
553 1 0.128452 0.205303 0.500000 
554 1 0.148524 0.206052 0.500000 
555 1 0.168589 0.206830 0.500000 
556 1 0.188673 0.207619 0.500000 
557 1 0.208766 0.208432 0.500000 
558 1 0.239244 0.192802 0.500000 
559 1 0.228816 0.209253 0.500000 
560 1 0.259301 0.193630 0.500000 
561 1 0.248864 0.210055 0.500000 
562 1 0.279333 0.194484 0.500000 
563 1 0.268914 0.210926 0.500000 
564 1 0.299324 0.195337 0.500000 
565 1 0.288933 0.211822 0.500000 
566 1 0.319352 0.196192 0.500000 
567 1 0.339342 0.197095 0.500000 
568 1 0.359304 0.197958 0.500000 
569 1 0.379271 0.198838 0.500000 
570 1 0.399207 0.199746 0.500000 
571 1 0.419137 0.200595 0.500000 
572 1 0.439036 0.201440 0.500000 
573 1 0.458953 0.202248 0.500000 
574 1 0.478849 0.202989 0.500000 
575 1 0.498738 0.203674 0.500000 
576 1 0.518631 0.204317 0.500000 
577 1 0.538538 0.204924 0.500000 
578 1 0.558458 0.205479 0.500000 
579 1 0.578390 0.206005 0.500000 
580 1 0.598319 0.206482 0.500000 
581 1 0.618238 0.206958 0.500000 
582 1 0.638168 0.207386 0.500000 
583 1 0.658096 0.207820 0.500000 
584 1 0.678065 0.208215 0.500000 
585 1 0.708325 0.191679 0.500000 
586 1 0.698026 0.208572 0.500000 
587 1 0.728296 0.192004 0.500000 
588 1 0.717998 0.208912 0.500000 
589 1 0.748248 0.192291 0.500000 
590 1 0.737959 0.209221 0.500000 
591 1 0.768196 0.192573 0.500000 
592 1 0.757919 0.209503 0.500000 
593 1 0.788166 0.192824 0.500000 
594 1 0.777893 0.209750 0.500000 
595 1 0.808147 0.193042 0.500000 
596 1 0.797878 0.209972 0.500000 
597 1 0.828124 0.193266 0.500000 
598 1 0.817866 0.210187 0.500000 
599 1 0.848101 0.193459 0.500000 
600 1 0.837860 0.210400 0.500000 
601 1 0.868079 0.193690 0.500000 
602 1 0.857831 0.210611 0.500000 
603 1 0.888059 0.193880 0.500000 
604 1 0.877818 0.210809 0.500000 
605 1 0.908039 0.194055 0.500000 
606 1 0.897816 0.210979 0.500000 
607 1 0.928026 0.194208 0.500000 
608 1 0.917800 0.211139 0.500000 
609 1 0.948021 0.194385 0.500000 
610 1 0.937794 0.211299 0.500000 
611 1 0.957807 0.211443 0.500000 
612 1 0.968031 0.194496 0.500000 
613 1 0.977825 0.211543 0.500000 
614 1 0.988043 0.194599 0.500000 
615 1 0.997847 0.211634 0.500000 
616 1 0.017654 0.218157 0.500000 
617 1 0.037684 0.218790 0.500000 
618 1 0.057718 0.219436 0.500000 
619 1 0.077791 0.220144 0.500000 
620 1 0.097867 0.220920 0.500000 
621 1 0.117957 0.221691 0.500000 
622 1 0.138057 0.222439 0.500000 
623 1 0.158117 0.223225 0.500000 
624 1 0.178182 0.224021 0.500000 
625 1 0.198264 0.224820 0.500000 
626 1 0.218344 0.225667 0.500000 
627 1 0.238418 0.226497 0.500000 
628 1 0.258464 0.227352 0.500000 
629 1 0.278507 0.228264 0.500000 
630 1 0.298550 0.229152 0.500000 
631 1 0.308946 0.212677 0.500000 
632 1 0.318536 0.230094 0.500000 
633 1 0.328926 0.213598 0.500000 
634 1 0.338518 0.231006 0.500000 
635 1 0.348916 0.214506 0.500000 
636 1 0.358503 0.231924 0.500000 
637 1 0.368892 0.215391 0.500000 
638 1 0.388836 0.216323 0.500000 
639 1 0.408777 0.217216 0.500000 
640 1 0.428686 0.218113 0.500000 
641 1 0.448601 0.218933 0.500000 
642 1 0.468524 0.219723 0.500000 
643 1 0.488421 0.220456 0.500000 
644 1 0.508322 0.221115 0.500000 
645 1 0.528221 0.221744 0.500000 
646 1 0.548123 0.222311 0.500000 
647 1 0.568035 0.222852 0.500000 
648 1 0.587954 0.223356 0.500000 
649 1 0.607879 0.223835 0.500000 
650 1 0.627816 0.224282 0.500000 
651 1 0.647759 0.224714 0.500000 
652 1 0.667715 0.225095 0.500000 
653 1 0.687673 0.225479 0.500000 
654 1 0.707643 0.225811 0.500000 
655 1 0.727630 0.226141 0.500000 
656 1 0.747619 0.226407 0.500000 
657 1 0.767609 0.226677 0.500000 
658 1 0.787588 0.226912 0.500000 
659 1 0.807569 0.227127 0.500000 
660 1 0.827566 0.227325 0.500000 
661 1 0.847562 0.227536 0.500000 
662 1 0.867555 0.227740 0.500000 
663 1 0.887555 0.227908 0.500000 
664 1 0.907562 0.228067 0.500000 
665 1 0.927573 0.228216 0.500000 
666 1 0.947580 0.228392 0.500000 
667 1 0.967605 0.228489 0.500000 
668 1 0.987634 0.228577 0.500000 
669 1 0.007189 0.234587 0.500000 
670 1 0.027214 0.235215 0.500000 
671 1 0.047243 0.235854 0.500000 
672 1 0.067275 0.236508 0.500000 
673 1 0.087362 0.237278 0.500000 
674 1 0.107447 0.238060 0.500000 
675 1 0.127536 0.238814 0.500000 
676 1 0.147608 0.239608 0.500000 
677 1 0.167696 0.240409 0.500000 
678 1 0.187797 0.241210 0.500000 
679 1 0.207868 0.242050 0.500000 
680 1 0.227944 0.242900 0.500000 
681 1 0.247996 0.243776 0.500000 
682 1 0.268035 0.244675 0.500000 
683 1 0.288085 0.245578 0.500000 
684 1 0.308104 0.246540 0.500000 
685 1 0.328117 0.247486 0.500000 
686 1 0.348093 0.248418 0.500000 
687 1 0.378449 0.232885 0.500000 
688 1 0.368038 0.249407 0.500000 
689 1 0.398392 0.233809 0.500000 
690 1 0.387999 0.250373 0.500000 
691 1 0.418317 0.234744 0.500000 
692 1 0.407940 0.251342 0.500000 
693 1 0.438245 0.235612 0.500000 
694 1 0.427885 0.252251 0.500000 
695 1 0.458161 0.236428 0.500000 
696 1 0.478059 0.237215 0.500000 
697 1 0.497975 0.237899 0.500000 
698 1 0.517878 0.238556 0.500000 
699 1 0.537784 0.239151 0.500000 
700 1 0.557690 0.239697 0.500000 
701 1 0.577626 0.240222 0.500000 
702 1 0.597564 0.240718 0.500000 
703 1 0.617488 0.241183 0.500000 
704 1 0.637419 0.241598 0.500000 
705 1 0.657376 0.242002 0.500000 
706 1 0.677346 0.242373 0.500000 
707 1 0.697346 0.242712 0.500000 
708 1 0.717338 0.243042 0.500000 
709 1 0.737328 0.243344 0.500000 
710 1 0.757306 0.243597 0.500000 
711 1 0.777304 0.243833 0.500000 
712 1 0.797308 0.244062 0.500000 
713 1 0.817311 0.244250 0.500000 
714 1 0.837311 0.244456 0.500000 
715 1 0.857317 0.244669 0.500000 
716 1 0.877334 0.244850 0.500000 
717 1 0.897342 0.245007 0.500000 
718 1 0.917346 0.245138 0.500000 
719 1 0.937356 0.245305 0.500000 
720 1 0.957383 0.245436 0.500000 
721 1 0.977417 0.245522 0.500000 
722 1 0.997455 0.245600 0.500000 
723 1 0.016737 0.251640 0.500000 
724 1 0.006256 0.268068 0.500000 
725 1 0.036760 0.252274 0.500000 
726 1 0.026272 0.268696 0.500000 
727 1 0.056787 0.252921 0.500000 
728 1 0.046292 0.269335 0.500000 
729 1 0.076857 0.253641 0.500000 
730 1 0.066319 0.269991 0.500000 
731 1 0.096933 0.254411 0.500000 
732 1 0.086416 0.270768 0.500000 
733 1 0.117027 0.255194 0.500000 
734 1 0.137098 0.255982 0.500000 
735 1 0.157187 0.256778 0.500000 
736 1 0.177292 0.257578 0.500000 
737 1 0.197378 0.258421 0.500000 
738 1 0.217462 0.259277 0.500000 
739 1 0.237525 0.260166 0.500000 
740 1 0.257576 0.261074 0.500000 
741 1 0.277618 0.261989 0.500000 
742 1 0.297624 0.262961 0.500000 
743 1 0.317651 0.263912 0.500000 
744 1 0.337667 0.264900 0.500000 
745 1 0.357629 0.265916 0.500000 
746 1 0.377602 0.266904 0.500000 
747 1 0.397544 0.267918 0.500000 
748 1 0.417487 0.268859 0.500000 
749 1 0.437398 0.269794 0.500000 
750 1 0.447795 0.253123 0.500000 
751 1 0.457300 0.270660 0.500000 
752 1 0.467688 0.253947 0.500000 
753 1 0.477231 0.271425 0.500000 
754 1 0.487617 0.254686 0.500000 
755 1 0.507529 0.255374 0.500000 
756 1 0.527457 0.255983 0.500000 
757 1 0.547367 0.256558 0.500000 
758 1 0.567268 0.257087 0.500000 
759 1 0.587180 0.257589 0.500000 
760 1 0.607130 0.258065 0.500000 
761 1 0.627090 0.258510 0.500000 
762 1 0.647052 0.258895 0.500000 
763 1 0.667020 0.259278 0.500000 
764 1 0.686990 0.259629 0.500000 
765 1 0.706970 0.259964 0.500000 
766 1 0.726970 0.260271 0.500000 
767 1 0.746978 0.260538 0.500000 
768 1 0.766997 0.260781 0.500000 
769 1 0.787005 0.260982 0.500000 
770 1 0.807033 0.261189 0.500000 
771 1 0.827046 0.261376 0.500000 
772 1 0.847069 0.261594 0.500000 
773 1 0.867098 0.261788 0.500000 
774 1 0.887120 0.261954 0.500000 
775 1 0.907141 0.262089 0.500000 
776 1 0.927142 0.262233 0.500000 
777 1 0.947159 0.262387 0.500000 
778 1 0.967200 0.262468 0.500000 
779 1 0.987245 0.262544 0.500000 
780 1 0.015779 0.285121 0.500000 
781 1 0.035792 0.285753 0.500000 
782 1 0.055810 0.286400 0.500000 
783 1 0.075876 0.287119 0.500000 
784 1 0.095950 0.287893 0.500000 
785 1 0.106500 0.271543 0.500000 
786 1 0.116039 0.288665 0.500000 
787 1 0.126590 0.272340 0.500000 
788 1 0.136124 0.289479 0.500000 
789 1 0.146675 0.273140 0.500000 
790 1 0.156215 0.290295 0.500000 
791 1 0.166764 0.273940 0.500000 
792 1 0.176306 0.291123 0.500000 
793 1 0.186849 0.274774 0.500000 
794 1 0.206946 0.275637 0.500000 
795 1 0.227023 0.276543 0.500000 
796 1 0.247080 0.277454 0.500000 
797 1 0.267148 0.278377 0.500000 
798 1 0.287183 0.279374 0.500000 
799 1 0.307215 0.280336 0.500000 
800 1 0.327233 0.281334 0.500000 
801 1 0.347222 0.282407 0.500000 
802 1 0.367202 0.283412 0.500000 
803 1 0.387158 0.284460 0.500000 
804 1 0.407118 0.285456 0.500000 
805 1 0.427035 0.286438 0.500000 
806 1 0.446941 0.287369 0.500000 
807 1 0.466858 0.288176 0.500000 
808 1 0.497159 0.272187 0.500000 
809 1 0.486774 0.288961 0.500000 
810 1 0.506708 0.289637 0.500000 
811 1 0.517088 0.272816 0.500000 
812 1 0.526617 0.290282 0.500000 
813 1 0.536995 0.273412 0.500000 
814 1 0.546543 0.290849 0.500000 
815 1 0.556915 0.273964 0.500000 
816 1 0.576845 0.274482 0.500000 
817 1 0.596790 0.274936 0.500000 
818 1 0.616746 0.275399 0.500000 
819 1 0.636718 0.275820 0.500000 
820 1 0.656672 0.276201 0.500000 
821 1 0.676652 0.276557 0.500000 
822 1 0.696642 0.276898 0.500000 
823 1 0.716646 0.277200 0.500000 
824 1 0.736659 0.277483 0.500000 
825 1 0.756677 0.277721 0.500000 
826 1 0.776705 0.277959 0.500000 
827 1 0.796725 0.278125 0.500000 
828 1 0.816752 0.278334 0.500000 
829 1 0.836775 0.278521 0.500000 
830 1 0.856818 0.278719 0.500000 
831 1 0.876854 0.278894 0.500000 
832 1 0.896892 0.279033 0.500000 
833 1 0.916922 0.279174 0.500000 
834 1 0.936946 0.279317 0.500000 
835 1 0.956982 0.279417 0.500000 
836 1 0.977036 0.279488 0.500000 
837 1 0.997089 0.279555 0.500000 
838 1 0.005284 0.301547 0.500000 
839 1 0.025288 0.302175 0.500000 
840 1 0.045299 0.302815 0.500000 
841 1 0.065313 0.303468 0.500000 
842 1 0.085394 0.304244 0.500000 
843 1 0.105476 0.305014 0.500000 
844 1 0.125555 0.305798 0.500000 
845 1 0.145642 0.306626 0.500000 
846 1 0.165745 0.307461 0.500000 
847 1 0.196384 0.291983 0.500000 
848 1 0.185815 0.308336 0.500000 
849 1 0.216477 0.292894 0.500000 
850 1 0.205882 0.309221 0.500000 
851 1 0.236560 0.293832 0.500000 
852 1 0.225979 0.310145 0.500000 
853 1 0.256630 0.294744 0.500000 
854 1 0.246086 0.311096 0.500000 
855 1 0.276687 0.295725 0.500000 
856 1 0.266156 0.312063 0.500000 
857 1 0.296755 0.296730 0.500000 
858 1 0.316781 0.297744 0.500000 
859 1 0.336765 0.298831 0.500000 
860 1 0.356781 0.299891 0.500000 
861 1 0.376744 0.300949 0.500000 
862 1 0.396704 0.301999 0.500000 
863 1 0.416644 0.303050 0.500000 
864 1 0.436557 0.304041 0.500000 
865 1 0.456485 0.304914 0.500000 
866 1 0.476391 0.305735 0.500000 
867 1 0.496321 0.306455 0.500000 
868 1 0.516223 0.307132 0.500000 
869 1 0.536157 0.307725 0.500000 
870 1 0.566488 0.291369 0.500000 
871 1 0.556112 0.308269 0.500000 
872 1 0.586445 0.291854 0.500000 
873 1 0.576063 0.308763 0.500000 
874 1 0.606398 0.292304 0.500000 
875 1 0.596025 0.309232 0.500000 
876 1 0.626370 0.292738 0.500000 
877 1 0.616005 0.309659 0.500000 
878 1 0.646346 0.293147 0.500000 
879 1 0.636003 0.310071 0.500000 
880 1 0.666342 0.293486 0.500000 
881 1 0.686349 0.293821 0.500000 