ITEM: TIMESTEP
3500
ITEM: NUMBER OF ATOMS
2850
ITEM: BOX BOUNDS ss ss pp
-28.0536 28.3253 
-28.9988 28.9984 
-0.5 0.5 
ITEM: ATOMS id type xs ys zs
1 1 0.012661 0.000000 0.500000 
2 1 0.032688 0.000597 0.500000 
3 1 0.052715 0.001202 0.500000 
4 1 0.072742 0.001814 0.500000 
5 1 0.092767 0.002433 0.500000 
6 1 0.112794 0.003060 0.500000 
7 1 0.132817 0.003697 0.500000 
8 1 0.152841 0.004338 0.500000 
9 1 0.172861 0.004988 0.500000 
10 1 0.192879 0.005643 0.500000 
11 1 0.212895 0.006305 0.500000 
12 1 0.232906 0.006973 0.500000 
13 1 0.252912 0.007645 0.500000 
14 1 0.272914 0.008319 0.500000 
15 1 0.292911 0.008997 0.500000 
16 1 0.312901 0.009676 0.500000 
17 1 0.332885 0.010356 0.500000 
18 1 0.352861 0.011033 0.500000 
19 1 0.372830 0.011707 0.500000 
20 1 0.392791 0.012376 0.500000 
21 1 0.022340 0.017073 0.500000 
22 1 0.042369 0.017677 0.500000 
23 1 0.062397 0.018289 0.500000 
24 1 0.082426 0.018911 0.500000 
25 1 0.102455 0.019539 0.500000 
26 1 0.122484 0.020177 0.500000 
27 1 0.142511 0.020822 0.500000 
28 1 0.162536 0.021475 0.500000 
29 1 0.182559 0.022136 0.500000 
30 1 0.202579 0.022803 0.500000 
31 1 0.222596 0.023475 0.500000 
32 1 0.242610 0.024155 0.500000 
33 1 0.262618 0.024839 0.500000 
34 1 0.282622 0.025527 0.500000 
35 1 0.302619 0.026217 0.500000 
36 1 0.322610 0.026908 0.500000 
37 1 0.342593 0.027600 0.500000 
38 1 0.362570 0.028289 0.500000 
39 1 0.382537 0.028974 0.500000 
40 1 0.402497 0.029655 0.500000 
41 1 0.412744 0.013039 0.500000 
42 1 0.422448 0.030326 0.500000 
43 1 0.432688 0.013694 0.500000 
44 1 0.442390 0.030989 0.500000 
45 1 0.452624 0.014337 0.500000 
46 1 0.462324 0.031639 0.500000 
47 1 0.472553 0.014968 0.500000 
48 1 0.482250 0.032276 0.500000 
49 1 0.492474 0.015584 0.500000 
50 1 0.512388 0.016184 0.500000 
51 1 0.532295 0.016766 0.500000 
52 1 0.552198 0.017330 0.500000 
53 1 0.572095 0.017873 0.500000 
54 1 0.591989 0.018396 0.500000 
55 1 0.611880 0.018896 0.500000 
56 1 0.631769 0.019373 0.500000 
57 1 0.651657 0.019829 0.500000 
58 1 0.671546 0.020261 0.500000 
59 1 0.691436 0.020670 0.500000 
60 1 0.711328 0.021058 0.500000 
61 1 0.731222 0.021423 0.500000 
62 1 0.751120 0.021768 0.500000 
63 1 0.771021 0.022094 0.500000 
64 1 0.790927 0.022399 0.500000 
65 1 0.810837 0.022687 0.500000 
66 1 0.830751 0.022958 0.500000 
67 1 0.850671 0.023211 0.500000 
68 1 0.870595 0.023449 0.500000 
69 1 0.890525 0.023674 0.500000 
70 1 0.910459 0.023884 0.500000 
71 1 0.930398 0.024080 0.500000 
72 1 0.950341 0.024267 0.500000 
73 1 0.970290 0.024443 0.500000 
74 1 0.990243 0.024606 0.500000 
75 1 0.011983 0.033545 0.500000 
76 1 0.032014 0.034148 0.500000 
77 1 0.021650 0.050615 0.500000 
78 1 0.052044 0.034760 0.500000 
79 1 0.041680 0.051227 0.500000 
80 1 0.072075 0.035381 0.500000 
81 1 0.061715 0.051847 0.500000 
82 1 0.092107 0.036012 0.500000 
83 1 0.081754 0.052482 0.500000 
84 1 0.112138 0.036650 0.500000 
85 1 0.132168 0.037297 0.500000 
86 1 0.152197 0.037952 0.500000 
87 1 0.172226 0.038617 0.500000 
88 1 0.192251 0.039288 0.500000 
89 1 0.212274 0.039967 0.500000 
90 1 0.232293 0.040654 0.500000 
91 1 0.252309 0.041345 0.500000 
92 1 0.272318 0.042042 0.500000 
93 1 0.292324 0.042743 0.500000 
94 1 0.312323 0.043447 0.500000 
95 1 0.332314 0.044150 0.500000 
96 1 0.352297 0.044856 0.500000 
97 1 0.372273 0.045557 0.500000 
98 1 0.392240 0.046254 0.500000 
99 1 0.412198 0.046944 0.500000 
100 1 0.432147 0.047626 0.500000 
101 1 0.452087 0.048297 0.500000 
102 1 0.472018 0.048954 0.500000 
103 1 0.502167 0.032896 0.500000 
104 1 0.491940 0.049595 0.500000 
105 1 0.522078 0.033498 0.500000 
106 1 0.511855 0.050220 0.500000 
107 1 0.541983 0.034081 0.500000 
108 1 0.531762 0.050823 0.500000 
109 1 0.561882 0.034643 0.500000 
110 1 0.551663 0.051406 0.500000 
111 1 0.581777 0.035184 0.500000 
112 1 0.571560 0.051966 0.500000 
113 1 0.601668 0.035702 0.500000 
114 1 0.591452 0.052503 0.500000 
115 1 0.621558 0.036195 0.500000 
116 1 0.641446 0.036666 0.500000 
117 1 0.661334 0.037110 0.500000 
118 1 0.681223 0.037533 0.500000 
119 1 0.701115 0.037931 0.500000 
120 1 0.721007 0.038307 0.500000 
121 1 0.740905 0.038660 0.500000 
122 1 0.760806 0.038993 0.500000 
123 1 0.780711 0.039305 0.500000 
124 1 0.800620 0.039597 0.500000 
125 1 0.820536 0.039873 0.500000 
126 1 0.840456 0.040130 0.500000 
127 1 0.860382 0.040369 0.500000 
128 1 0.880312 0.040595 0.500000 
129 1 0.900248 0.040807 0.500000 
130 1 0.920188 0.041005 0.500000 
131 1 0.940134 0.041192 0.500000 
132 1 0.960084 0.041368 0.500000 
133 1 0.980040 0.041531 0.500000 
134 1 1.000000 0.041686 0.500000 
135 1 0.011275 0.067077 0.500000 
136 1 0.031308 0.067688 0.500000 
137 1 0.051342 0.068307 0.500000 
138 1 0.071376 0.068936 0.500000 
139 1 0.091431 0.069583 0.500000 
140 1 0.101798 0.053126 0.500000 
141 1 0.111474 0.070256 0.500000 
142 1 0.121832 0.053785 0.500000 
143 1 0.131517 0.070917 0.500000 
144 1 0.141867 0.054440 0.500000 
145 1 0.151558 0.071591 0.500000 
146 1 0.161901 0.055114 0.500000 
147 1 0.171587 0.072289 0.500000 
148 1 0.181926 0.055795 0.500000 
149 1 0.201952 0.056475 0.500000 
150 1 0.221974 0.057172 0.500000 
151 1 0.241989 0.057874 0.500000 
152 1 0.262001 0.058577 0.500000 
153 1 0.282005 0.059285 0.500000 
154 1 0.302004 0.060000 0.500000 
155 1 0.321996 0.060712 0.500000 
156 1 0.341981 0.061432 0.500000 
157 1 0.361962 0.062146 0.500000 
158 1 0.381929 0.062861 0.500000 
159 1 0.401880 0.063570 0.500000 
160 1 0.421833 0.064259 0.500000 
161 1 0.441779 0.064962 0.500000 
162 1 0.461707 0.065634 0.500000 
163 1 0.481633 0.066289 0.500000 
164 1 0.501551 0.066934 0.500000 
165 1 0.521464 0.067555 0.500000 
166 1 0.541369 0.068155 0.500000 
167 1 0.561268 0.068730 0.500000 
168 1 0.581167 0.069279 0.500000 
169 1 0.601064 0.069803 0.500000 
170 1 0.611341 0.053013 0.500000 
171 1 0.620958 0.070310 0.500000 
172 1 0.631230 0.053499 0.500000 
173 1 0.640849 0.070785 0.500000 
174 1 0.651117 0.053960 0.500000 
175 1 0.671006 0.054396 0.500000 
176 1 0.660744 0.071229 0.500000 
177 1 0.690897 0.054806 0.500000 
178 1 0.680640 0.071647 0.500000 
179 1 0.710789 0.055192 0.500000 
180 1 0.700539 0.072043 0.500000 
181 1 0.730685 0.055554 0.500000 
182 1 0.720440 0.072420 0.500000 
183 1 0.750586 0.055894 0.500000 
184 1 0.770490 0.056213 0.500000 
185 1 0.790400 0.056511 0.500000 
186 1 0.810316 0.056789 0.500000 
187 1 0.830238 0.057049 0.500000 
188 1 0.850164 0.057294 0.500000 
189 1 0.870095 0.057522 0.500000 
190 1 0.890032 0.057734 0.500000 
191 1 0.909975 0.057934 0.500000 
192 1 0.929922 0.058120 0.500000 
193 1 0.949875 0.058294 0.500000 
194 1 0.969833 0.058458 0.500000 
195 1 0.989796 0.058613 0.500000 
196 1 0.020924 0.084144 0.500000 
197 1 0.040959 0.084763 0.500000 
198 1 0.060994 0.085390 0.500000 
199 1 0.081045 0.086034 0.500000 
200 1 0.101094 0.086709 0.500000 
201 1 0.121144 0.087381 0.500000 
202 1 0.141190 0.088058 0.500000 
203 1 0.161224 0.088764 0.500000 
204 1 0.191614 0.072973 0.500000 
205 1 0.181261 0.089460 0.500000 
206 1 0.211637 0.073671 0.500000 
207 1 0.201291 0.090164 0.500000 
208 1 0.221312 0.090882 0.500000 
209 1 0.231658 0.074390 0.500000 
210 1 0.241338 0.091603 0.500000 
211 1 0.251674 0.075096 0.500000 
212 1 0.261348 0.092337 0.500000 
213 1 0.271679 0.075820 0.500000 
214 1 0.291679 0.076546 0.500000 
215 1 0.311677 0.077269 0.500000 
216 1 0.331663 0.078003 0.500000 
217 1 0.351641 0.078727 0.500000 
218 1 0.371610 0.079454 0.500000 
219 1 0.391568 0.080186 0.500000 
220 1 0.411521 0.080892 0.500000 
221 1 0.431464 0.081600 0.500000 
222 1 0.451403 0.082305 0.500000 
223 1 0.471331 0.082972 0.500000 
224 1 0.491253 0.083641 0.500000 
225 1 0.511167 0.084282 0.500000 
226 1 0.531074 0.084897 0.500000 
227 1 0.550981 0.085490 0.500000 
228 1 0.570885 0.086054 0.500000 
229 1 0.590787 0.086597 0.500000 
230 1 0.610683 0.087111 0.500000 
231 1 0.630582 0.087604 0.500000 
232 1 0.650482 0.088061 0.500000 
233 1 0.670384 0.088490 0.500000 
234 1 0.690285 0.088895 0.500000 
235 1 0.710190 0.089281 0.500000 
236 1 0.730104 0.089638 0.500000 
237 1 0.740346 0.072767 0.500000 
238 1 0.750021 0.089966 0.500000 
239 1 0.760262 0.073090 0.500000 
240 1 0.769941 0.090278 0.500000 
241 1 0.780180 0.073395 0.500000 
242 1 0.789867 0.090569 0.500000 
243 1 0.800101 0.073677 0.500000 
244 1 0.809799 0.090834 0.500000 
245 1 0.820025 0.073941 0.500000 
246 1 0.829734 0.091085 0.500000 
247 1 0.839954 0.074193 0.500000 
248 1 0.849672 0.091325 0.500000 
249 1 0.859888 0.074428 0.500000 
250 1 0.869615 0.091550 0.500000 
251 1 0.879829 0.074643 0.500000 
252 1 0.889559 0.091761 0.500000 
253 1 0.899773 0.074850 0.500000 
254 1 0.909511 0.091958 0.500000 
255 1 0.919720 0.075039 0.500000 
256 1 0.929458 0.092147 0.500000 
257 1 0.939669 0.075221 0.500000 
258 1 0.949407 0.092323 0.500000 
259 1 0.959621 0.075390 0.500000 
260 1 0.979588 0.075542 0.500000 
261 1 0.999557 0.075685 0.500000 
262 1 0.010532 0.100598 0.500000 
263 1 0.030566 0.101214 0.500000 
264 1 0.050602 0.101839 0.500000 
265 1 0.070640 0.102476 0.500000 
266 1 0.090699 0.103152 0.500000 
267 1 0.110757 0.103834 0.500000 
268 1 0.130809 0.104516 0.500000 
269 1 0.150849 0.105226 0.500000 
270 1 0.170889 0.105934 0.500000 
271 1 0.190923 0.106646 0.500000 
272 1 0.210954 0.107368 0.500000 
273 1 0.230986 0.108095 0.500000 
274 1 0.251003 0.108840 0.500000 
275 1 0.271015 0.109595 0.500000 
276 1 0.281351 0.093080 0.500000 
277 1 0.291023 0.110346 0.500000 
278 1 0.301352 0.093814 0.500000 
279 1 0.311014 0.111100 0.500000 
280 1 0.321343 0.094558 0.500000 
281 1 0.330997 0.111857 0.500000 
282 1 0.341325 0.095306 0.500000 
283 1 0.361289 0.096043 0.500000 
284 1 0.381248 0.096783 0.500000 
285 1 0.401208 0.097516 0.500000 
286 1 0.421153 0.098238 0.500000 
287 1 0.441085 0.098954 0.500000 
288 1 0.461020 0.099651 0.500000 
289 1 0.480938 0.100331 0.500000 
290 1 0.500857 0.101000 0.500000 
291 1 0.520768 0.101634 0.500000 
292 1 0.540677 0.102240 0.500000 
293 1 0.560588 0.102825 0.500000 
294 1 0.580496 0.103382 0.500000 
295 1 0.600403 0.103912 0.500000 
296 1 0.620306 0.104413 0.500000 
297 1 0.640214 0.104881 0.500000 
298 1 0.660127 0.105329 0.500000 
299 1 0.680035 0.105751 0.500000 
300 1 0.699944 0.106142 0.500000 
301 1 0.719857 0.106508 0.500000 
302 1 0.739775 0.106847 0.500000 
303 1 0.759702 0.107160 0.500000 
304 1 0.779635 0.107459 0.500000 
305 1 0.799574 0.107733 0.500000 
306 1 0.819511 0.107988 0.500000 
307 1 0.839448 0.108226 0.500000 
308 1 0.859392 0.108451 0.500000 
309 1 0.879341 0.108675 0.500000 
310 1 0.899292 0.108873 0.500000 
311 1 0.919248 0.109069 0.500000 
312 1 0.939201 0.109252 0.500000 
313 1 0.969375 0.092475 0.500000 
314 1 0.959160 0.109410 0.500000 
315 1 0.989349 0.092617 0.500000 
316 1 0.979136 0.109550 0.500000 
317 1 0.999117 0.109681 0.500000 
318 1 0.020165 0.117663 0.500000 
319 1 0.040201 0.118287 0.500000 
320 1 0.060239 0.118920 0.500000 
321 1 0.080290 0.119583 0.500000 
322 1 0.100348 0.120273 0.500000 
323 1 0.120403 0.120963 0.500000 
324 1 0.140449 0.121669 0.500000 
325 1 0.160496 0.122386 0.500000 
326 1 0.180540 0.123112 0.500000 
327 1 0.200580 0.123841 0.500000 
328 1 0.220621 0.124574 0.500000 
329 1 0.240647 0.125331 0.500000 
330 1 0.260662 0.126094 0.500000 
331 1 0.280676 0.126859 0.500000 
332 1 0.300676 0.127631 0.500000 
333 1 0.320662 0.128400 0.500000 
334 1 0.340641 0.129177 0.500000 
335 1 0.350975 0.112622 0.500000 
336 1 0.360614 0.129955 0.500000 
337 1 0.370939 0.113377 0.500000 
338 1 0.380576 0.130724 0.500000 
339 1 0.390896 0.114127 0.500000 
340 1 0.400525 0.131494 0.500000 
341 1 0.410842 0.114873 0.500000 
342 1 0.420467 0.132244 0.500000 
343 1 0.430779 0.115604 0.500000 
344 1 0.450714 0.116315 0.500000 
345 1 0.470641 0.117024 0.500000 
346 1 0.490560 0.117704 0.500000 
347 1 0.510476 0.118366 0.500000 
348 1 0.530389 0.118989 0.500000 
349 1 0.550300 0.119586 0.500000 
350 1 0.570211 0.120167 0.500000 
351 1 0.590119 0.120710 0.500000 
352 1 0.610031 0.121221 0.500000 
353 1 0.629941 0.121704 0.500000 
354 1 0.649849 0.122157 0.500000 
355 1 0.669766 0.122597 0.500000 
356 1 0.689681 0.123003 0.500000 
357 1 0.709604 0.123378 0.500000 
358 1 0.729528 0.123728 0.500000 
359 1 0.749455 0.124047 0.500000 
360 1 0.769387 0.124346 0.500000 
361 1 0.789327 0.124628 0.500000 
362 1 0.809273 0.124895 0.500000 
363 1 0.829219 0.125141 0.500000 
364 1 0.849164 0.125365 0.500000 
365 1 0.869111 0.125585 0.500000 
366 1 0.889067 0.125794 0.500000 
367 1 0.909026 0.125983 0.500000 
368 1 0.928986 0.126174 0.500000 
369 1 0.948940 0.126349 0.500000 
370 1 0.968919 0.126487 0.500000 
371 1 0.988905 0.126616 0.500000 
372 1 0.009754 0.134110 0.500000 
373 1 0.029790 0.134729 0.500000 
374 1 0.019367 0.151171 0.500000 
375 1 0.049825 0.135360 0.500000 
376 1 0.039403 0.151799 0.500000 
377 1 0.069865 0.136003 0.500000 
378 1 0.089930 0.136696 0.500000 
379 1 0.109992 0.137394 0.500000 
380 1 0.130046 0.138104 0.500000 
381 1 0.150099 0.138821 0.500000 
382 1 0.170147 0.139556 0.500000 
383 1 0.190192 0.140300 0.500000 
384 1 0.210239 0.141036 0.500000 
385 1 0.230269 0.141802 0.500000 
386 1 0.250290 0.142579 0.500000 
387 1 0.270305 0.143356 0.500000 
388 1 0.290311 0.144144 0.500000 
389 1 0.310310 0.144930 0.500000 
390 1 0.330293 0.145720 0.500000 
391 1 0.350272 0.146514 0.500000 
392 1 0.370242 0.147305 0.500000 
393 1 0.390197 0.148091 0.500000 
394 1 0.410145 0.148866 0.500000 
395 1 0.440401 0.132978 0.500000 
396 1 0.430086 0.149629 0.500000 
397 1 0.460324 0.133699 0.500000 
398 1 0.450016 0.150374 0.500000 
399 1 0.480248 0.134404 0.500000 
400 1 0.469939 0.151095 0.500000 
401 1 0.500171 0.135085 0.500000 
402 1 0.489862 0.151793 0.500000 
403 1 0.520089 0.135732 0.500000 
404 1 0.540001 0.136347 0.500000 
405 1 0.559913 0.136937 0.500000 
406 1 0.579829 0.137508 0.500000 
407 1 0.599743 0.138028 0.500000 
408 1 0.619662 0.138527 0.500000 
409 1 0.639580 0.138996 0.500000 
410 1 0.659496 0.139436 0.500000 
411 1 0.679415 0.139863 0.500000 
412 1 0.699342 0.140247 0.500000 
413 1 0.719276 0.140606 0.500000 
414 1 0.739212 0.140935 0.500000 
415 1 0.759148 0.141239 0.500000 
416 1 0.779084 0.141524 0.500000 
417 1 0.799027 0.141793 0.500000 
418 1 0.818979 0.142049 0.500000 
419 1 0.838930 0.142284 0.500000 
420 1 0.858883 0.142500 0.500000 
421 1 0.878844 0.142707 0.500000 
422 1 0.898810 0.142902 0.500000 
423 1 0.918772 0.143092 0.500000 
424 1 0.938734 0.143274 0.500000 
425 1 0.958701 0.143428 0.500000 
426 1 0.978689 0.143555 0.500000 
427 1 0.998682 0.143674 0.500000 
428 1 0.008938 0.167610 0.500000 
429 1 0.028972 0.168234 0.500000 
430 1 0.049008 0.168868 0.500000 
431 1 0.059442 0.152437 0.500000 
432 1 0.069047 0.169517 0.500000 
433 1 0.079503 0.153111 0.500000 
434 1 0.089122 0.170220 0.500000 
435 1 0.099564 0.153811 0.500000 
436 1 0.109182 0.170940 0.500000 
437 1 0.119623 0.154527 0.500000 
438 1 0.139688 0.155250 0.500000 
439 1 0.129246 0.171664 0.500000 
440 1 0.159741 0.155987 0.500000 
441 1 0.179789 0.156740 0.500000 
442 1 0.199841 0.157489 0.500000 
443 1 0.219872 0.158260 0.500000 
444 1 0.239900 0.159042 0.500000 
445 1 0.259925 0.159837 0.500000 
446 1 0.279936 0.160640 0.500000 
447 1 0.299946 0.161437 0.500000 
448 1 0.319945 0.162250 0.500000 
449 1 0.339925 0.163056 0.500000 
450 1 0.359902 0.163864 0.500000 
451 1 0.379868 0.164675 0.500000 
452 1 0.399820 0.165474 0.500000 
453 1 0.419761 0.166258 0.500000 
454 1 0.439701 0.167028 0.500000 
455 1 0.459637 0.167778 0.500000 
456 1 0.479563 0.168498 0.500000 
457 1 0.499483 0.169192 0.500000 
458 1 0.509784 0.152466 0.500000 
459 1 0.519399 0.169859 0.500000 
460 1 0.529699 0.153104 0.500000 
461 1 0.539314 0.170487 0.500000 
462 1 0.549613 0.153711 0.500000 
463 1 0.559230 0.171082 0.500000 
464 1 0.569527 0.154291 0.500000 
465 1 0.579149 0.171646 0.500000 
466 1 0.589450 0.154840 0.500000 
467 1 0.609370 0.155343 0.500000 
468 1 0.629292 0.155832 0.500000 
469 1 0.649215 0.156286 0.500000 
470 1 0.669138 0.156717 0.500000 
471 1 0.689068 0.157119 0.500000 
472 1 0.709006 0.157484 0.500000 
473 1 0.728948 0.157824 0.500000 
474 1 0.748891 0.158133 0.500000 
475 1 0.768838 0.158426 0.500000 
476 1 0.788785 0.158699 0.500000 
477 1 0.808736 0.158953 0.500000 
478 1 0.828690 0.159196 0.500000 
479 1 0.848648 0.159417 0.500000 
480 1 0.868611 0.159622 0.500000 
481 1 0.888579 0.159822 0.500000 
482 1 0.908545 0.160013 0.500000 
483 1 0.928511 0.160193 0.500000 
484 1 0.948477 0.160370 0.500000 
485 1 0.968470 0.160496 0.500000 
486 1 0.988467 0.160611 0.500000 
487 1 0.018532 0.184668 0.500000 
488 1 0.038566 0.185299 0.500000 
489 1 0.058602 0.185942 0.500000 
490 1 0.078667 0.186622 0.500000 
491 1 0.098730 0.187347 0.500000 
492 1 0.118795 0.188070 0.500000 
493 1 0.138858 0.188814 0.500000 
494 1 0.149306 0.172410 0.500000 
495 1 0.158923 0.189578 0.500000 
496 1 0.169360 0.173164 0.500000 
497 1 0.178983 0.190342 0.500000 
498 1 0.189419 0.173924 0.500000 
499 1 0.199036 0.191129 0.500000 
500 1 0.209467 0.174706 0.500000 
501 1 0.219086 0.191928 0.500000 
502 1 0.229505 0.175492 0.500000 
503 1 0.249536 0.176293 0.500000 
504 1 0.269556 0.177117 0.500000 
505 1 0.289571 0.177929 0.500000 
506 1 0.309574 0.178752 0.500000 
507 1 0.329567 0.179585 0.500000 
508 1 0.349548 0.180405 0.500000 
509 1 0.369517 0.181237 0.500000 
510 1 0.389478 0.182058 0.500000 
511 1 0.409434 0.182872 0.500000 
512 1 0.429375 0.183667 0.500000 
513 1 0.449309 0.184437 0.500000 
514 1 0.469236 0.185191 0.500000 
515 1 0.489160 0.185911 0.500000 
516 1 0.509080 0.186603 0.500000 
517 1 0.529002 0.187257 0.500000 
518 1 0.548920 0.187870 0.500000 
519 1 0.568839 0.188455 0.500000 
520 1 0.588766 0.188993 0.500000 
521 1 0.599076 0.172171 0.500000 
522 1 0.608695 0.189505 0.500000 
523 1 0.618993 0.172665 0.500000 
524 1 0.628622 0.189979 0.500000 
525 1 0.638918 0.173131 0.500000 
526 1 0.648555 0.190428 0.500000 
527 1 0.658846 0.173571 0.500000 
528 1 0.668494 0.190850 0.500000 
529 1 0.678778 0.173985 0.500000 
530 1 0.688442 0.191241 0.500000 
531 1 0.698722 0.174365 0.500000 
532 1 0.718670 0.174711 0.500000 
533 1 0.738624 0.175031 0.500000 
534 1 0.758578 0.175324 0.500000 
535 1 0.778535 0.175608 0.500000 
536 1 0.798494 0.175868 0.500000 
537 1 0.818454 0.176109 0.500000 
538 1 0.838415 0.176334 0.500000 
539 1 0.858380 0.176545 0.500000 
540 1 0.878345 0.176739 0.500000 
541 1 0.898317 0.176931 0.500000 
542 1 0.918293 0.177117 0.500000 
543 1 0.938266 0.177293 0.500000 
544 1 0.958249 0.177440 0.500000 
545 1 0.978251 0.177553 0.500000 
546 1 0.998258 0.177659 0.500000 
547 1 0.008083 0.201103 0.500000 
548 1 0.028113 0.201727 0.500000 
549 1 0.048147 0.202367 0.500000 
550 1 0.068185 0.203017 0.500000 
551 1 0.088258 0.203741 0.500000 
552 1 0.108333 0.204472 0.500000 
553 1 0.128393 0.205213 0.500000 
554 1 0.148456 0.205970 0.500000 
555 1 0.168523 0.206746 0.500000 
556 1 0.188581 0.207535 0.500000 
557 1 0.208637 0.208340 0.500000 
558 1 0.239123 0.192737 0.500000 
559 1 0.228691 0.209163 0.500000 
560 1 0.259151 0.193567 0.500000 
561 1 0.248732 0.210003 0.500000 
562 1 0.279180 0.194399 0.500000 
563 1 0.268767 0.210845 0.500000 
564 1 0.299194 0.195240 0.500000 
565 1 0.288793 0.211702 0.500000 
566 1 0.319194 0.196087 0.500000 
567 1 0.339188 0.196929 0.500000 
568 1 0.359165 0.197781 0.500000 
569 1 0.379133 0.198627 0.500000 
570 1 0.399089 0.199466 0.500000 
571 1 0.419037 0.200291 0.500000 
572 1 0.438981 0.201084 0.500000 
573 1 0.458914 0.201869 0.500000 
574 1 0.478846 0.202622 0.500000 
575 1 0.498768 0.203337 0.500000 
576 1 0.518686 0.204021 0.500000 
577 1 0.538602 0.204659 0.500000 
578 1 0.558522 0.205254 0.500000 
579 1 0.578453 0.205815 0.500000 
580 1 0.598387 0.206339 0.500000 
581 1 0.618320 0.206833 0.500000 
582 1 0.638258 0.207287 0.500000 
583 1 0.658199 0.207719 0.500000 
584 1 0.678149 0.208118 0.500000 
585 1 0.708399 0.191601 0.500000 
586 1 0.698110 0.208484 0.500000 
587 1 0.728356 0.191923 0.500000 
588 1 0.718079 0.208820 0.500000 
589 1 0.748318 0.192225 0.500000 
590 1 0.738042 0.209127 0.500000 
591 1 0.768277 0.192510 0.500000 
592 1 0.758005 0.209417 0.500000 
593 1 0.788242 0.192779 0.500000 
594 1 0.777976 0.209685 0.500000 
595 1 0.808206 0.193027 0.500000 
596 1 0.797948 0.209942 0.500000 
597 1 0.828173 0.193254 0.500000 
598 1 0.817923 0.210175 0.500000 
599 1 0.848145 0.193465 0.500000 
600 1 0.837905 0.210391 0.500000 
601 1 0.868121 0.193663 0.500000 
602 1 0.857887 0.210586 0.500000 
603 1 0.888093 0.193855 0.500000 
604 1 0.877865 0.210784 0.500000 
605 1 0.908068 0.194039 0.500000 
606 1 0.897844 0.210971 0.500000 
607 1 0.928042 0.194219 0.500000 
608 1 0.917822 0.211145 0.500000 
609 1 0.948021 0.194385 0.500000 
610 1 0.937809 0.211308 0.500000 
611 1 0.957807 0.211443 0.500000 
612 1 0.968031 0.194496 0.500000 
613 1 0.977825 0.211543 0.500000 
614 1 0.988043 0.194599 0.500000 
615 1 0.997847 0.211634 0.500000 
616 1 0.017654 0.218157 0.500000 
617 1 0.037684 0.218790 0.500000 
618 1 0.057718 0.219436 0.500000 
619 1 0.077777 0.220129 0.500000 
620 1 0.097846 0.220855 0.500000 
621 1 0.117919 0.221608 0.500000 
622 1 0.137986 0.222361 0.500000 
623 1 0.158051 0.223131 0.500000 
624 1 0.178116 0.223927 0.500000 
625 1 0.198177 0.224741 0.500000 
626 1 0.218234 0.225563 0.500000 
627 1 0.238288 0.226414 0.500000 
628 1 0.258336 0.227274 0.500000 
629 1 0.278372 0.228145 0.500000 
630 1 0.298396 0.229029 0.500000 
631 1 0.308810 0.212571 0.500000 
632 1 0.318416 0.229914 0.500000 
633 1 0.328815 0.213436 0.500000 
634 1 0.338421 0.230810 0.500000 
635 1 0.348801 0.214306 0.500000 
636 1 0.358404 0.231708 0.500000 
637 1 0.368774 0.215175 0.500000 
638 1 0.388737 0.216042 0.500000 
639 1 0.408692 0.216896 0.500000 
640 1 0.428640 0.217719 0.500000 
641 1 0.448574 0.218531 0.500000 
642 1 0.468504 0.219312 0.500000 
643 1 0.488435 0.220064 0.500000 
644 1 0.508355 0.220774 0.500000 
645 1 0.528280 0.221444 0.500000 
646 1 0.548205 0.222060 0.500000 
647 1 0.568132 0.222635 0.500000 
648 1 0.588070 0.223176 0.500000 
649 1 0.608011 0.223683 0.500000 
650 1 0.627956 0.224148 0.500000 
651 1 0.647901 0.224587 0.500000 
652 1 0.667856 0.224993 0.500000 
653 1 0.687817 0.225373 0.500000 
654 1 0.707784 0.225716 0.500000 
655 1 0.727755 0.226033 0.500000 
656 1 0.747735 0.226329 0.500000 
657 1 0.767715 0.226598 0.500000 
658 1 0.787693 0.226855 0.500000 
659 1 0.807670 0.227094 0.500000 
660 1 0.827658 0.227314 0.500000 
661 1 0.847651 0.227519 0.500000 
662 1 0.867632 0.227713 0.500000 
663 1 0.887615 0.227901 0.500000 
664 1 0.907602 0.228077 0.500000 
665 1 0.927591 0.228238 0.500000 
666 1 0.947580 0.228392 0.500000 
667 1 0.967605 0.228489 0.500000 
668 1 0.987634 0.228577 0.500000 
669 1 0.007189 0.234587 0.500000 
670 1 0.027214 0.235215 0.500000 
671 1 0.047243 0.235854 0.500000 
672 1 0.067275 0.236508 0.500000 
673 1 0.087347 0.237238 0.500000 
674 1 0.107414 0.237979 0.500000 
675 1 0.127490 0.238743 0.500000 
676 1 0.147559 0.239513 0.500000 
677 1 0.167627 0.240304 0.500000 
678 1 0.187693 0.241119 0.500000 
679 1 0.207763 0.241949 0.500000 
680 1 0.227824 0.242802 0.500000 
681 1 0.247881 0.243675 0.500000 
682 1 0.267929 0.244561 0.500000 
683 1 0.287971 0.245461 0.500000 
684 1 0.308006 0.246364 0.500000 
685 1 0.328019 0.247282 0.500000 
686 1 0.348017 0.248210 0.500000 
687 1 0.378375 0.232596 0.500000 
688 1 0.368002 0.249127 0.500000 
689 1 0.398340 0.233475 0.500000 
690 1 0.387973 0.250034 0.500000 
691 1 0.418292 0.234340 0.500000 
692 1 0.407930 0.250937 0.500000 
693 1 0.438228 0.235180 0.500000 
694 1 0.427880 0.251813 0.500000 
695 1 0.458160 0.235989 0.500000 
696 1 0.478092 0.236769 0.500000 
697 1 0.498020 0.237524 0.500000 
698 1 0.517944 0.238217 0.500000 
699 1 0.537874 0.238865 0.500000 
700 1 0.557804 0.239464 0.500000 
701 1 0.577742 0.240009 0.500000 
702 1 0.597688 0.240531 0.500000 
703 1 0.617639 0.241009 0.500000 
704 1 0.637595 0.241455 0.500000 
705 1 0.657556 0.241872 0.500000 
706 1 0.677519 0.242262 0.500000 
707 1 0.697489 0.242617 0.500000 
708 1 0.717464 0.242944 0.500000 
709 1 0.737445 0.243237 0.500000 
710 1 0.757434 0.243518 0.500000 
711 1 0.777421 0.243773 0.500000 
712 1 0.797407 0.244019 0.500000 
713 1 0.817396 0.244236 0.500000 
714 1 0.837395 0.244445 0.500000 
715 1 0.857390 0.244647 0.500000 
716 1 0.877384 0.244829 0.500000 
717 1 0.897380 0.245008 0.500000 
718 1 0.917375 0.245169 0.500000 
719 1 0.937372 0.245322 0.500000 
720 1 0.957383 0.245436 0.500000 
721 1 0.977417 0.245522 0.500000 
722 1 0.997455 0.245600 0.500000 
723 1 0.016737 0.251640 0.500000 
724 1 0.006256 0.268068 0.500000 
725 1 0.036760 0.252274 0.500000 
726 1 0.026272 0.268696 0.500000 
727 1 0.056787 0.252921 0.500000 
728 1 0.046292 0.269335 0.500000 
729 1 0.076843 0.253616 0.500000 
730 1 0.066319 0.269991 0.500000 
731 1 0.096907 0.254353 0.500000 
732 1 0.086382 0.270725 0.500000 
733 1 0.116973 0.255109 0.500000 
734 1 0.137048 0.255886 0.500000 
735 1 0.157119 0.256674 0.500000 
736 1 0.177190 0.257485 0.500000 
737 1 0.197266 0.258314 0.500000 
738 1 0.217336 0.259174 0.500000 
739 1 0.237403 0.260052 0.500000 
740 1 0.257463 0.260950 0.500000 
741 1 0.277520 0.261862 0.500000 
742 1 0.297567 0.262784 0.500000 
743 1 0.317595 0.263726 0.500000 
744 1 0.337605 0.264676 0.500000 
745 1 0.357602 0.265629 0.500000 
746 1 0.377581 0.266570 0.500000 
747 1 0.397548 0.267506 0.500000 
748 1 0.417507 0.268423 0.500000 
749 1 0.437454 0.269308 0.500000 
750 1 0.447817 0.252657 0.500000 
751 1 0.457384 0.270156 0.500000 
752 1 0.467744 0.253467 0.500000 
753 1 0.477304 0.270974 0.500000 
754 1 0.487667 0.254252 0.500000 
755 1 0.507598 0.254985 0.500000 
756 1 0.527528 0.255658 0.500000 
757 1 0.547465 0.256282 0.500000 
758 1 0.567409 0.256851 0.500000 
759 1 0.587355 0.257380 0.500000 
760 1 0.607310 0.257876 0.500000 
761 1 0.627272 0.258330 0.500000 
762 1 0.647239 0.258756 0.500000 
763 1 0.667212 0.259155 0.500000 
764 1 0.687189 0.259518 0.500000 
765 1 0.707167 0.259848 0.500000 
766 1 0.727153 0.260152 0.500000 
767 1 0.747141 0.260431 0.500000 
768 1 0.767135 0.260696 0.500000 
769 1 0.787131 0.260938 0.500000 
770 1 0.807135 0.261167 0.500000 
771 1 0.827137 0.261367 0.500000 
772 1 0.847140 0.261572 0.500000 
773 1 0.867145 0.261757 0.500000 
774 1 0.887150 0.261933 0.500000 
775 1 0.907153 0.262098 0.500000 
776 1 0.927154 0.262248 0.500000 
777 1 0.947159 0.262387 0.500000 
778 1 0.967200 0.262468 0.500000 
779 1 0.987245 0.262544 0.500000 
780 1 0.015779 0.285121 0.500000 
781 1 0.035792 0.285753 0.500000 
782 1 0.055810 0.286400 0.500000 
783 1 0.075854 0.287095 0.500000 
784 1 0.095911 0.287840 0.500000 
785 1 0.106446 0.271475 0.500000 
786 1 0.115976 0.288598 0.500000 
787 1 0.126517 0.272243 0.500000 
788 1 0.136049 0.289387 0.500000 
789 1 0.146590 0.273036 0.500000 
790 1 0.156126 0.290185 0.500000 
791 1 0.166668 0.273841 0.500000 
792 1 0.176205 0.291014 0.500000 
793 1 0.186746 0.274669 0.500000 
794 1 0.206825 0.275525 0.500000 
795 1 0.226898 0.276411 0.500000 
796 1 0.246966 0.277316 0.500000 
797 1 0.267030 0.278235 0.500000 
798 1 0.287091 0.279178 0.500000 
799 1 0.307133 0.280138 0.500000 
800 1 0.327165 0.281110 0.500000 
801 1 0.347180 0.282091 0.500000 
802 1 0.367179 0.283077 0.500000 
803 1 0.387157 0.284049 0.500000 
804 1 0.407118 0.285005 0.500000 
805 1 0.427070 0.285928 0.500000 
806 1 0.447007 0.286832 0.500000 
807 1 0.466931 0.287688 0.500000 
808 1 0.497233 0.271737 0.500000 
809 1 0.486864 0.288484 0.500000 
810 1 0.506799 0.289218 0.500000 
811 1 0.517174 0.272441 0.500000 
812 1 0.526738 0.289899 0.500000 
813 1 0.537119 0.273096 0.500000 
814 1 0.546690 0.290529 0.500000 
815 1 0.557061 0.273691 0.500000 
816 1 0.577013 0.274234 0.500000 
817 1 0.596971 0.274744 0.500000 
818 1 0.616937 0.275211 0.500000 
819 1 0.636909 0.275644 0.500000 
820 1 0.656887 0.276050 0.500000 
821 1 0.676875 0.276417 0.500000 
822 1 0.696861 0.276758 0.500000 
823 1 0.716852 0.277067 0.500000 
824 1 0.736851 0.277352 0.500000 
825 1 0.756854 0.277616 0.500000 
826 1 0.776857 0.277865 0.500000 
827 1 0.796861 0.278090 0.500000 
828 1 0.816873 0.278303 0.500000 
829 1 0.836883 0.278500 0.500000 
830 1 0.856896 0.278689 0.500000 
831 1 0.876912 0.278861 0.500000 
832 1 0.896924 0.279025 0.500000 
833 1 0.916935 0.279177 0.500000 
834 1 0.936953 0.279312 0.500000 
835 1 0.956982 0.279417 0.500000 
836 1 0.977036 0.279488 0.500000 
837 1 0.997089 0.279555 0.500000 
838 1 0.005284 0.301547 0.500000 
839 1 0.025288 0.302175 0.500000 
840 1 0.045299 0.302815 0.500000 
841 1 0.065313 0.303468 0.500000 
842 1 0.085366 0.304202 0.500000 
843 1 0.105425 0.304953 0.500000 
844 1 0.125489 0.305728 0.500000 
845 1 0.145565 0.306526 0.500000 
846 1 0.165641 0.307341 0.500000 
847 1 0.196281 0.291862 0.500000 
848 1 0.185721 0.308192 0.500000 
849 1 0.216360 0.292747 0.500000 
850 1 0.205802 0.309067 0.500000 
851 1 0.236438 0.293657 0.500000 
852 1 0.225878 0.309976 0.500000 
853 1 0.256516 0.294588 0.500000 
854 1 0.245964 0.310906 0.500000 
855 1 0.276585 0.295537 0.500000 
856 1 0.266049 0.311870 0.500000 
857 1 0.296647 0.296522 0.500000 
858 1 0.316700 0.297511 0.500000 
859 1 0.336730 0.298523 0.500000 
860 1 0.356739 0.299539 0.500000 
861 1 0.376739 0.300554 0.500000 
862 1 0.396716 0.301558 0.500000 
863 1 0.416672 0.302531 0.500000 
864 1 0.436608 0.303477 0.500000 
865 1 0.456542 0.304383 0.500000 
866 1 0.476474 0.305219 0.500000 
867 1 0.496409 0.305995 0.500000 
868 1 0.516351 0.306709 0.500000 
869 1 0.536304 0.307356 0.500000 
870 1 0.566644 0.291092 0.500000 
871 1 0.556270 0.307949 0.500000 
872 1 0.586602 0.291613 0.500000 
873 1 0.576236 0.308489 0.500000 
874 1 0.606574 0.292090 0.500000 
875 1 0.596212 0.308978 0.500000 
876 1 0.626558 0.292534 0.500000 
877 1 0.616195 0.309424 0.500000 
878 1 0.646545 0.292944 0.500000 
879 1 0.636191 0.309842 0.500000 
880 1 0.666542 0.293316 0.500000 
881 1 0.686542 0.293669 0.500000 