ITEM: TIMESTEP
4400
ITEM: NUMBER OF ATOMS
2850
ITEM: BOX BOUNDS ss ss pp
-28.0536 28.3253 
-28.9988 28.9984 
-0.5 0.5 
ITEM: ATOMS id type xs ys zs
1 1 0.012661 0.000000 0.500000 
2 1 0.032688 0.000597 0.500000 
3 1 0.052715 0.001202 0.500000 
4 1 0.072742 0.001814 0.500000 
5 1 0.092767 0.002433 0.500000 
6 1 0.112794 0.003060 0.500000 
7 1 0.132817 0.003697 0.500000 
8 1 0.152841 0.004338 0.500000 
9 1 0.172861 0.004988 0.500000 
10 1 0.192879 0.005643 0.500000 
11 1 0.212895 0.006305 0.500000 
12 1 0.232906 0.006973 0.500000 
13 1 0.252912 0.007645 0.500000 
14 1 0.272914 0.008319 0.500000 
15 1 0.292911 0.008997 0.500000 
16 1 0.312901 0.009676 0.500000 
17 1 0.332885 0.010356 0.500000 
18 1 0.352861 0.011033 0.500000 
19 1 0.372830 0.011707 0.500000 
20 1 0.392791 0.012376 0.500000 
21 1 0.022340 0.017073 0.500000 
22 1 0.042369 0.017677 0.500000 
23 1 0.062397 0.018289 0.500000 
24 1 0.082426 0.018911 0.500000 
25 1 0.102455 0.019539 0.500000 
26 1 0.122484 0.020177 0.500000 
27 1 0.142511 0.020822 0.500000 
28 1 0.162536 0.021475 0.500000 
29 1 0.182559 0.022136 0.500000 
30 1 0.202579 0.022803 0.500000 
31 1 0.222596 0.023475 0.500000 
32 1 0.242610 0.024155 0.500000 
33 1 0.262618 0.024839 0.500000 
34 1 0.282622 0.025527 0.500000 
35 1 0.302619 0.026217 0.500000 
36 1 0.322610 0.026908 0.500000 
37 1 0.342593 0.027600 0.500000 
38 1 0.362570 0.028289 0.500000 
39 1 0.382537 0.028974 0.500000 
40 1 0.402497 0.029655 0.500000 
41 1 0.412744 0.013039 0.500000 
42 1 0.422448 0.030326 0.500000 
43 1 0.432688 0.013694 0.500000 
44 1 0.442390 0.030989 0.500000 
45 1 0.452624 0.014337 0.500000 
46 1 0.462324 0.031639 0.500000 
47 1 0.472553 0.014968 0.500000 
48 1 0.482250 0.032276 0.500000 
49 1 0.492474 0.015584 0.500000 
50 1 0.512388 0.016184 0.500000 
51 1 0.532295 0.016766 0.500000 
52 1 0.552198 0.017330 0.500000 
53 1 0.572095 0.017873 0.500000 
54 1 0.591989 0.018396 0.500000 
55 1 0.611880 0.018896 0.500000 
56 1 0.631769 0.019373 0.500000 
57 1 0.651657 0.019829 0.500000 
58 1 0.671546 0.020261 0.500000 
59 1 0.691436 0.020670 0.500000 
60 1 0.711328 0.021058 0.500000 
61 1 0.731222 0.021423 0.500000 
62 1 0.751120 0.021768 0.500000 
63 1 0.771021 0.022094 0.500000 
64 1 0.790927 0.022399 0.500000 
65 1 0.810837 0.022687 0.500000 
66 1 0.830751 0.022958 0.500000 
67 1 0.850671 0.023211 0.500000 
68 1 0.870595 0.023449 0.500000 
69 1 0.890525 0.023674 0.500000 
70 1 0.910459 0.023884 0.500000 
71 1 0.930398 0.024080 0.500000 
72 1 0.950341 0.024267 0.500000 
73 1 0.970290 0.024443 0.500000 
74 1 0.990243 0.024606 0.500000 
75 1 0.011983 0.033545 0.500000 
76 1 0.032014 0.034148 0.500000 
77 1 0.021650 0.050615 0.500000 
78 1 0.052044 0.034760 0.500000 
79 1 0.041680 0.051227 0.500000 
80 1 0.072075 0.035381 0.500000 
81 1 0.061715 0.051847 0.500000 
82 1 0.092107 0.036012 0.500000 
83 1 0.081755 0.052482 0.500000 
84 1 0.112138 0.036650 0.500000 
85 1 0.132168 0.037297 0.500000 
86 1 0.152197 0.037952 0.500000 
87 1 0.172226 0.038617 0.500000 
88 1 0.192251 0.039288 0.500000 
89 1 0.212274 0.039967 0.500000 
90 1 0.232293 0.040654 0.500000 
91 1 0.252309 0.041345 0.500000 
92 1 0.272318 0.042042 0.500000 
93 1 0.292324 0.042743 0.500000 
94 1 0.312323 0.043447 0.500000 
95 1 0.332314 0.044150 0.500000 
96 1 0.352297 0.044856 0.500000 
97 1 0.372273 0.045557 0.500000 
98 1 0.392240 0.046254 0.500000 
99 1 0.412198 0.046944 0.500000 
100 1 0.432147 0.047626 0.500000 
101 1 0.452087 0.048297 0.500000 
102 1 0.472018 0.048954 0.500000 
103 1 0.502167 0.032896 0.500000 
104 1 0.491940 0.049595 0.500000 
105 1 0.522078 0.033498 0.500000 
106 1 0.511855 0.050220 0.500000 
107 1 0.541983 0.034081 0.500000 
108 1 0.531762 0.050823 0.500000 
109 1 0.561882 0.034643 0.500000 
110 1 0.551663 0.051406 0.500000 
111 1 0.581777 0.035184 0.500000 
112 1 0.571560 0.051966 0.500000 
113 1 0.601668 0.035702 0.500000 
114 1 0.591452 0.052503 0.500000 
115 1 0.621558 0.036195 0.500000 
116 1 0.641446 0.036666 0.500000 
117 1 0.661334 0.037110 0.500000 
118 1 0.681223 0.037533 0.500000 
119 1 0.701115 0.037931 0.500000 
120 1 0.721007 0.038307 0.500000 
121 1 0.740905 0.038660 0.500000 
122 1 0.760806 0.038993 0.500000 
123 1 0.780711 0.039305 0.500000 
124 1 0.800620 0.039597 0.500000 
125 1 0.820536 0.039873 0.500000 
126 1 0.840456 0.040130 0.500000 
127 1 0.860382 0.040369 0.500000 
128 1 0.880312 0.040595 0.500000 
129 1 0.900248 0.040807 0.500000 
130 1 0.920188 0.041005 0.500000 
131 1 0.940134 0.041192 0.500000 
132 1 0.960084 0.041368 0.500000 
133 1 0.980040 0.041531 0.500000 
134 1 1.000000 0.041686 0.500000 
135 1 0.011275 0.067077 0.500000 
136 1 0.031308 0.067688 0.500000 
137 1 0.051342 0.068307 0.500000 
138 1 0.071376 0.068936 0.500000 
139 1 0.091426 0.069589 0.500000 
140 1 0.101793 0.053126 0.500000 
141 1 0.111468 0.070249 0.500000 
142 1 0.121828 0.053781 0.500000 
143 1 0.131507 0.070919 0.500000 
144 1 0.141861 0.054442 0.500000 
145 1 0.151546 0.071593 0.500000 
146 1 0.161893 0.055112 0.500000 
147 1 0.171581 0.072282 0.500000 
148 1 0.181922 0.055791 0.500000 
149 1 0.201950 0.056477 0.500000 
150 1 0.221972 0.057171 0.500000 
151 1 0.241988 0.057868 0.500000 
152 1 0.262000 0.058573 0.500000 
153 1 0.282006 0.059287 0.500000 
154 1 0.302005 0.060002 0.500000 
155 1 0.321998 0.060718 0.500000 
156 1 0.341982 0.061435 0.500000 
157 1 0.361956 0.062150 0.500000 
158 1 0.381924 0.062861 0.500000 
159 1 0.401883 0.063569 0.500000 
160 1 0.421835 0.064266 0.500000 
161 1 0.441777 0.064956 0.500000 
162 1 0.461709 0.065635 0.500000 
163 1 0.481633 0.066294 0.500000 
164 1 0.501552 0.066935 0.500000 
165 1 0.521462 0.067557 0.500000 
166 1 0.541368 0.068156 0.500000 
167 1 0.561268 0.068733 0.500000 
168 1 0.581166 0.069282 0.500000 
169 1 0.601061 0.069811 0.500000 
170 1 0.611341 0.053013 0.500000 
171 1 0.620957 0.070309 0.500000 
172 1 0.631230 0.053499 0.500000 
173 1 0.640853 0.070782 0.500000 
174 1 0.651117 0.053960 0.500000 
175 1 0.671006 0.054396 0.500000 
176 1 0.660750 0.071229 0.500000 
177 1 0.690897 0.054806 0.500000 
178 1 0.680647 0.071650 0.500000 
179 1 0.710789 0.055192 0.500000 
180 1 0.700547 0.072048 0.500000 
181 1 0.730685 0.055554 0.500000 
182 1 0.720450 0.072422 0.500000 
183 1 0.750586 0.055894 0.500000 
184 1 0.770490 0.056213 0.500000 
185 1 0.790400 0.056511 0.500000 
186 1 0.810316 0.056789 0.500000 
187 1 0.830238 0.057049 0.500000 
188 1 0.850164 0.057294 0.500000 
189 1 0.870095 0.057522 0.500000 
190 1 0.890032 0.057734 0.500000 
191 1 0.909975 0.057934 0.500000 
192 1 0.929922 0.058120 0.500000 
193 1 0.949875 0.058294 0.500000 
194 1 0.969833 0.058458 0.500000 
195 1 0.989796 0.058613 0.500000 
196 1 0.020924 0.084144 0.500000 
197 1 0.040959 0.084763 0.500000 
198 1 0.060994 0.085390 0.500000 
199 1 0.081044 0.086038 0.500000 
200 1 0.101092 0.086705 0.500000 
201 1 0.121137 0.087383 0.500000 
202 1 0.141181 0.088062 0.500000 
203 1 0.161223 0.088756 0.500000 
204 1 0.191609 0.072974 0.500000 
205 1 0.181257 0.089461 0.500000 
206 1 0.211634 0.073674 0.500000 
207 1 0.201285 0.090167 0.500000 
208 1 0.221309 0.090883 0.500000 
209 1 0.231653 0.074382 0.500000 
210 1 0.241328 0.091607 0.500000 
211 1 0.251667 0.075094 0.500000 
212 1 0.261340 0.092333 0.500000 
213 1 0.271676 0.075815 0.500000 
214 1 0.291679 0.076544 0.500000 
215 1 0.311674 0.077272 0.500000 
216 1 0.331659 0.078002 0.500000 
217 1 0.351639 0.078735 0.500000 
218 1 0.371609 0.079459 0.500000 
219 1 0.391571 0.080186 0.500000 
220 1 0.411524 0.080899 0.500000 
221 1 0.431468 0.081605 0.500000 
222 1 0.451401 0.082304 0.500000 
223 1 0.471329 0.082982 0.500000 
224 1 0.491250 0.083641 0.500000 
225 1 0.511164 0.084283 0.500000 
226 1 0.531075 0.084899 0.500000 
227 1 0.550980 0.085496 0.500000 
228 1 0.570881 0.086062 0.500000 
229 1 0.590783 0.086602 0.500000 
230 1 0.610683 0.087115 0.500000 
231 1 0.630583 0.087601 0.500000 
232 1 0.650483 0.088060 0.500000 
233 1 0.670386 0.088494 0.500000 
234 1 0.690292 0.088901 0.500000 
235 1 0.710201 0.089284 0.500000 
236 1 0.730113 0.089640 0.500000 
237 1 0.740357 0.072767 0.500000 
238 1 0.750026 0.089976 0.500000 
239 1 0.760267 0.073095 0.500000 
240 1 0.769944 0.090288 0.500000 
241 1 0.780179 0.073400 0.500000 
242 1 0.789868 0.090579 0.500000 
243 1 0.800098 0.073683 0.500000 
244 1 0.809796 0.090849 0.500000 
245 1 0.820023 0.073949 0.500000 
246 1 0.829730 0.091103 0.500000 
247 1 0.839953 0.074198 0.500000 
248 1 0.849668 0.091340 0.500000 
249 1 0.859888 0.074430 0.500000 
250 1 0.869610 0.091560 0.500000 
251 1 0.879827 0.074646 0.500000 
252 1 0.889555 0.091768 0.500000 
253 1 0.899769 0.074849 0.500000 
254 1 0.909503 0.091963 0.500000 
255 1 0.919717 0.075042 0.500000 
256 1 0.929455 0.092148 0.500000 
257 1 0.939669 0.075220 0.500000 
258 1 0.949407 0.092323 0.500000 
259 1 0.959621 0.075390 0.500000 
260 1 0.979588 0.075542 0.500000 
261 1 0.999557 0.075685 0.500000 
262 1 0.010532 0.100598 0.500000 
263 1 0.030566 0.101214 0.500000 
264 1 0.050602 0.101839 0.500000 
265 1 0.070640 0.102476 0.500000 
266 1 0.090698 0.103150 0.500000 
267 1 0.110749 0.103832 0.500000 
268 1 0.130800 0.104521 0.500000 
269 1 0.150844 0.105216 0.500000 
270 1 0.170885 0.105929 0.500000 
271 1 0.190922 0.106646 0.500000 
272 1 0.210952 0.107370 0.500000 
273 1 0.230975 0.108103 0.500000 
274 1 0.250994 0.108841 0.500000 
275 1 0.271004 0.109587 0.500000 
276 1 0.281344 0.093071 0.500000 
277 1 0.291007 0.110340 0.500000 
278 1 0.301344 0.093814 0.500000 
279 1 0.311001 0.111101 0.500000 
280 1 0.321332 0.094557 0.500000 
281 1 0.330986 0.111855 0.500000 
282 1 0.341314 0.095302 0.500000 
283 1 0.361289 0.096045 0.500000 
284 1 0.381254 0.096786 0.500000 
285 1 0.401212 0.097520 0.500000 
286 1 0.421158 0.098244 0.500000 
287 1 0.441096 0.098960 0.500000 
288 1 0.461028 0.099660 0.500000 
289 1 0.480951 0.100341 0.500000 
290 1 0.500868 0.101001 0.500000 
291 1 0.520781 0.101635 0.500000 
292 1 0.540690 0.102248 0.500000 
293 1 0.560595 0.102838 0.500000 
294 1 0.580499 0.103392 0.500000 
295 1 0.600403 0.103919 0.500000 
296 1 0.620306 0.104418 0.500000 
297 1 0.640211 0.104890 0.500000 
298 1 0.660119 0.105334 0.500000 
299 1 0.680031 0.105751 0.500000 
300 1 0.699943 0.106144 0.500000 
301 1 0.719859 0.106513 0.500000 
302 1 0.739778 0.106856 0.500000 
303 1 0.759702 0.107176 0.500000 
304 1 0.779630 0.107474 0.500000 
305 1 0.799563 0.107750 0.500000 
306 1 0.819500 0.108009 0.500000 
307 1 0.839442 0.108251 0.500000 
308 1 0.859388 0.108477 0.500000 
309 1 0.879335 0.108689 0.500000 
310 1 0.899285 0.108887 0.500000 
311 1 0.919239 0.109073 0.500000 
312 1 0.939198 0.109251 0.500000 
313 1 0.969375 0.092475 0.500000 
314 1 0.959160 0.109410 0.500000 
315 1 0.989349 0.092617 0.500000 
316 1 0.979136 0.109550 0.500000 
317 1 0.999117 0.109681 0.500000 
318 1 0.020165 0.117663 0.500000 
319 1 0.040201 0.118287 0.500000 
320 1 0.060239 0.118920 0.500000 
321 1 0.080294 0.119583 0.500000 
322 1 0.100350 0.120270 0.500000 
323 1 0.120403 0.120962 0.500000 
324 1 0.140455 0.121667 0.500000 
325 1 0.160501 0.122382 0.500000 
326 1 0.180545 0.123107 0.500000 
327 1 0.200581 0.123843 0.500000 
328 1 0.220610 0.124585 0.500000 
329 1 0.240634 0.125332 0.500000 
330 1 0.260652 0.126089 0.500000 
331 1 0.280662 0.126853 0.500000 
332 1 0.300661 0.127628 0.500000 
333 1 0.320654 0.128400 0.500000 
334 1 0.340636 0.129172 0.500000 
335 1 0.350964 0.112616 0.500000 
336 1 0.360609 0.129947 0.500000 
337 1 0.370934 0.113374 0.500000 
338 1 0.380577 0.130717 0.500000 
339 1 0.390895 0.114125 0.500000 
340 1 0.400531 0.131485 0.500000 
341 1 0.410846 0.114871 0.500000 
342 1 0.420477 0.132237 0.500000 
343 1 0.430788 0.115605 0.500000 
344 1 0.450723 0.116325 0.500000 
345 1 0.470649 0.117029 0.500000 
346 1 0.490570 0.117710 0.500000 
347 1 0.510485 0.118367 0.500000 
348 1 0.530395 0.118996 0.500000 
349 1 0.550304 0.119604 0.500000 
350 1 0.570212 0.120180 0.500000 
351 1 0.590117 0.120721 0.500000 
352 1 0.610023 0.121236 0.500000 
353 1 0.629933 0.121719 0.500000 
354 1 0.649845 0.122174 0.500000 
355 1 0.669759 0.122600 0.500000 
356 1 0.689675 0.123005 0.500000 
357 1 0.709596 0.123382 0.500000 
358 1 0.729521 0.123735 0.500000 
359 1 0.749450 0.124064 0.500000 
360 1 0.769384 0.124368 0.500000 
361 1 0.789321 0.124650 0.500000 
362 1 0.809259 0.124916 0.500000 
363 1 0.829203 0.125162 0.500000 
364 1 0.849153 0.125391 0.500000 
365 1 0.869105 0.125609 0.500000 
366 1 0.889061 0.125809 0.500000 
367 1 0.909019 0.125999 0.500000 
368 1 0.928980 0.126177 0.500000 
369 1 0.948940 0.126349 0.500000 
370 1 0.968919 0.126487 0.500000 
371 1 0.988905 0.126616 0.500000 
372 1 0.009754 0.134110 0.500000 
373 1 0.029790 0.134729 0.500000 
374 1 0.019367 0.151171 0.500000 
375 1 0.049825 0.135360 0.500000 
376 1 0.039403 0.151799 0.500000 
377 1 0.069865 0.136003 0.500000 
378 1 0.089929 0.136694 0.500000 
379 1 0.109990 0.137395 0.500000 
380 1 0.130045 0.138103 0.500000 
381 1 0.150099 0.138823 0.500000 
382 1 0.170148 0.139555 0.500000 
383 1 0.190190 0.140297 0.500000 
384 1 0.210229 0.141049 0.500000 
385 1 0.230261 0.141808 0.500000 
386 1 0.250283 0.142574 0.500000 
387 1 0.270299 0.143350 0.500000 
388 1 0.290306 0.144136 0.500000 
389 1 0.310306 0.144925 0.500000 
390 1 0.330298 0.145715 0.500000 
391 1 0.350277 0.146506 0.500000 
392 1 0.370249 0.147291 0.500000 
393 1 0.390210 0.148082 0.500000 
394 1 0.410161 0.148858 0.500000 
395 1 0.440415 0.132978 0.500000 
396 1 0.430102 0.149619 0.500000 
397 1 0.460344 0.133705 0.500000 
398 1 0.450035 0.150369 0.500000 
399 1 0.480267 0.134409 0.500000 
400 1 0.469960 0.151096 0.500000 
401 1 0.500186 0.135089 0.500000 
402 1 0.489880 0.151800 0.500000 
403 1 0.520100 0.135741 0.500000 
404 1 0.540009 0.136365 0.500000 
405 1 0.559918 0.136960 0.500000 
406 1 0.579827 0.137521 0.500000 
407 1 0.599736 0.138050 0.500000 
408 1 0.619649 0.138548 0.500000 
409 1 0.639565 0.139015 0.500000 
410 1 0.659483 0.139453 0.500000 
411 1 0.679401 0.139867 0.500000 
412 1 0.699326 0.140253 0.500000 
413 1 0.719256 0.140613 0.500000 
414 1 0.739188 0.140951 0.500000 
415 1 0.759127 0.141263 0.500000 
416 1 0.779068 0.141554 0.500000 
417 1 0.799013 0.141823 0.500000 
418 1 0.818962 0.142074 0.500000 
419 1 0.838914 0.142308 0.500000 
420 1 0.858870 0.142528 0.500000 
421 1 0.878830 0.142732 0.500000 
422 1 0.898792 0.142923 0.500000 
423 1 0.918758 0.143103 0.500000 
424 1 0.938727 0.143276 0.500000 
425 1 0.958701 0.143428 0.500000 
426 1 0.978689 0.143555 0.500000 
427 1 0.998682 0.143674 0.500000 
428 1 0.008938 0.167610 0.500000 
429 1 0.028972 0.168234 0.500000 
430 1 0.049008 0.168868 0.500000 
431 1 0.059442 0.152437 0.500000 
432 1 0.069047 0.169517 0.500000 
433 1 0.079499 0.153110 0.500000 
434 1 0.089115 0.170222 0.500000 
435 1 0.099560 0.153814 0.500000 
436 1 0.109182 0.170940 0.500000 
437 1 0.119621 0.154529 0.500000 
438 1 0.139679 0.155250 0.500000 
439 1 0.129244 0.171667 0.500000 
440 1 0.159734 0.155988 0.500000 
441 1 0.179784 0.156738 0.500000 
442 1 0.199829 0.157495 0.500000 
443 1 0.219869 0.158265 0.500000 
444 1 0.239901 0.159044 0.500000 
445 1 0.259924 0.159831 0.500000 
446 1 0.279940 0.160627 0.500000 
447 1 0.299947 0.161430 0.500000 
448 1 0.319946 0.162236 0.500000 
449 1 0.339936 0.163047 0.500000 
450 1 0.359916 0.163852 0.500000 
451 1 0.379881 0.164660 0.500000 
452 1 0.399838 0.165461 0.500000 
453 1 0.419785 0.166249 0.500000 
454 1 0.439721 0.167020 0.500000 
455 1 0.459651 0.167773 0.500000 
456 1 0.479574 0.168500 0.500000 
457 1 0.499493 0.169204 0.500000 
458 1 0.509796 0.152476 0.500000 
459 1 0.519406 0.169872 0.500000 
460 1 0.529710 0.153122 0.500000 
461 1 0.539320 0.170506 0.500000 
462 1 0.549622 0.153736 0.500000 
463 1 0.559236 0.171107 0.500000 
464 1 0.569533 0.154315 0.500000 
465 1 0.579151 0.171671 0.500000 
466 1 0.589446 0.154861 0.500000 
467 1 0.609361 0.155376 0.500000 
468 1 0.629278 0.155857 0.500000 
469 1 0.649199 0.156307 0.500000 
470 1 0.669122 0.156731 0.500000 
471 1 0.689051 0.157124 0.500000 
472 1 0.708985 0.157493 0.500000 
473 1 0.728922 0.157839 0.500000 
474 1 0.748866 0.158157 0.500000 
475 1 0.768811 0.158458 0.500000 
476 1 0.788761 0.158731 0.500000 
477 1 0.808715 0.158986 0.500000 
478 1 0.828672 0.159226 0.500000 
479 1 0.848633 0.159448 0.500000 
480 1 0.868599 0.159656 0.500000 
481 1 0.888566 0.159849 0.500000 
482 1 0.908534 0.160029 0.500000 
483 1 0.928504 0.160204 0.500000 
484 1 0.948477 0.160370 0.500000 
485 1 0.968470 0.160496 0.500000 
486 1 0.988467 0.160611 0.500000 
487 1 0.018532 0.184668 0.500000 
488 1 0.038566 0.185299 0.500000 
489 1 0.058602 0.185942 0.500000 
490 1 0.078662 0.186624 0.500000 
491 1 0.098727 0.187341 0.500000 
492 1 0.118792 0.188072 0.500000 
493 1 0.138855 0.188814 0.500000 
494 1 0.149302 0.172406 0.500000 
495 1 0.158913 0.189571 0.500000 
496 1 0.169357 0.173162 0.500000 
497 1 0.178972 0.190342 0.500000 
498 1 0.189411 0.173927 0.500000 
499 1 0.199027 0.191127 0.500000 
500 1 0.209457 0.174703 0.500000 
501 1 0.219075 0.191924 0.500000 
502 1 0.229498 0.175495 0.500000 
503 1 0.249533 0.176293 0.500000 
504 1 0.269559 0.177101 0.500000 
505 1 0.289576 0.177918 0.500000 
506 1 0.309583 0.178740 0.500000 
507 1 0.329580 0.179566 0.500000 
508 1 0.349567 0.180393 0.500000 
509 1 0.369541 0.181222 0.500000 
510 1 0.389504 0.182044 0.500000 
511 1 0.409456 0.182859 0.500000 
512 1 0.429398 0.183660 0.500000 
513 1 0.449332 0.184437 0.500000 
514 1 0.469257 0.185190 0.500000 
515 1 0.489177 0.185919 0.500000 
516 1 0.509096 0.186616 0.500000 
517 1 0.529013 0.187271 0.500000 
518 1 0.548929 0.187895 0.500000 
519 1 0.568846 0.188479 0.500000 
520 1 0.588765 0.189026 0.500000 
521 1 0.599066 0.172201 0.500000 
522 1 0.608687 0.189537 0.500000 
523 1 0.618985 0.172697 0.500000 
524 1 0.628612 0.190013 0.500000 
525 1 0.638909 0.173159 0.500000 
526 1 0.648543 0.190458 0.500000 
527 1 0.658837 0.173596 0.500000 
528 1 0.668481 0.190872 0.500000 
529 1 0.678770 0.173997 0.500000 
530 1 0.688423 0.191256 0.500000 
531 1 0.698707 0.174374 0.500000 
532 1 0.718648 0.174728 0.500000 
533 1 0.738595 0.175053 0.500000 
534 1 0.758546 0.175360 0.500000 
535 1 0.778502 0.175641 0.500000 
536 1 0.798459 0.175901 0.500000 
537 1 0.818420 0.176145 0.500000 
538 1 0.838388 0.176370 0.500000 
539 1 0.858359 0.176579 0.500000 
540 1 0.878330 0.176777 0.500000 
541 1 0.898304 0.176959 0.500000 
542 1 0.918281 0.177131 0.500000 
543 1 0.938262 0.177298 0.500000 
544 1 0.958249 0.177440 0.500000 
545 1 0.978251 0.177553 0.500000 
546 1 0.998258 0.177659 0.500000 
547 1 0.008083 0.201103 0.500000 
548 1 0.028113 0.201727 0.500000 
549 1 0.048147 0.202367 0.500000 
550 1 0.068185 0.203017 0.500000 
551 1 0.088254 0.203737 0.500000 
552 1 0.108321 0.204467 0.500000 
553 1 0.128388 0.205211 0.500000 
554 1 0.148453 0.205970 0.500000 
555 1 0.168516 0.206743 0.500000 
556 1 0.188578 0.207532 0.500000 
557 1 0.208634 0.208338 0.500000 
558 1 0.239120 0.192733 0.500000 
559 1 0.228686 0.209154 0.500000 
560 1 0.259155 0.193555 0.500000 
561 1 0.248731 0.209987 0.500000 
562 1 0.279181 0.194385 0.500000 
563 1 0.268769 0.210831 0.500000 
564 1 0.299201 0.195224 0.500000 
565 1 0.288798 0.211683 0.500000 
566 1 0.319208 0.196067 0.500000 
567 1 0.339202 0.196914 0.500000 
568 1 0.359185 0.197764 0.500000 
569 1 0.379158 0.198608 0.500000 
570 1 0.399117 0.199450 0.500000 
571 1 0.419065 0.200278 0.500000 
572 1 0.439005 0.201086 0.500000 
573 1 0.458934 0.201871 0.500000 
574 1 0.478858 0.202624 0.500000 
575 1 0.498780 0.203347 0.500000 
576 1 0.518698 0.204033 0.500000 
577 1 0.538614 0.204678 0.500000 
578 1 0.558532 0.205284 0.500000 
579 1 0.578453 0.205848 0.500000 
580 1 0.598378 0.206377 0.500000 
581 1 0.618308 0.206869 0.500000 
582 1 0.638242 0.207323 0.500000 
583 1 0.658182 0.207746 0.500000 
584 1 0.678128 0.208140 0.500000 
585 1 0.708366 0.191617 0.500000 
586 1 0.698078 0.208509 0.500000 
587 1 0.728316 0.191951 0.500000 
588 1 0.718033 0.208850 0.500000 
589 1 0.748272 0.192264 0.500000 
590 1 0.737993 0.209170 0.500000 
591 1 0.768235 0.192552 0.500000 
592 1 0.757959 0.209465 0.500000 
593 1 0.788198 0.192817 0.500000 
594 1 0.777929 0.209733 0.500000 
595 1 0.808165 0.193066 0.500000 
596 1 0.797902 0.209984 0.500000 
597 1 0.828137 0.193293 0.500000 
598 1 0.817881 0.210218 0.500000 
599 1 0.848113 0.193505 0.500000 
600 1 0.837861 0.210433 0.500000 
601 1 0.868089 0.193704 0.500000 
602 1 0.857844 0.210635 0.500000 
603 1 0.888070 0.193890 0.500000 
604 1 0.877830 0.210820 0.500000 
605 1 0.908053 0.194059 0.500000 
606 1 0.897821 0.210991 0.500000 
607 1 0.928036 0.194227 0.500000 
608 1 0.917809 0.211156 0.500000 
609 1 0.948021 0.194385 0.500000 
610 1 0.937804 0.211314 0.500000 
611 1 0.957807 0.211443 0.500000 
612 1 0.968031 0.194496 0.500000 
613 1 0.977825 0.211543 0.500000 
614 1 0.988043 0.194599 0.500000 
615 1 0.997847 0.211634 0.500000 
616 1 0.017654 0.218157 0.500000 
617 1 0.037684 0.218790 0.500000 
618 1 0.057718 0.219436 0.500000 
619 1 0.077776 0.220125 0.500000 
620 1 0.097839 0.220856 0.500000 
621 1 0.117904 0.221598 0.500000 
622 1 0.137972 0.222357 0.500000 
623 1 0.158042 0.223131 0.500000 
624 1 0.178109 0.223923 0.500000 
625 1 0.198173 0.224733 0.500000 
626 1 0.218234 0.225558 0.500000 
627 1 0.238287 0.226400 0.500000 
628 1 0.258335 0.227254 0.500000 
629 1 0.278377 0.228120 0.500000 
630 1 0.298405 0.228998 0.500000 
631 1 0.308816 0.212543 0.500000 
632 1 0.318422 0.229883 0.500000 
633 1 0.328823 0.213412 0.500000 
634 1 0.338426 0.230780 0.500000 
635 1 0.348815 0.214284 0.500000 
636 1 0.358418 0.231674 0.500000 
637 1 0.368796 0.215153 0.500000 
638 1 0.388764 0.216017 0.500000 
639 1 0.408720 0.216877 0.500000 
640 1 0.428666 0.217716 0.500000 
641 1 0.448600 0.218533 0.500000 
642 1 0.468529 0.219316 0.500000 
643 1 0.488451 0.220067 0.500000 
644 1 0.508372 0.220784 0.500000 
645 1 0.528291 0.221457 0.500000 
646 1 0.548211 0.222085 0.500000 
647 1 0.568135 0.222670 0.500000 
648 1 0.588062 0.223215 0.500000 
649 1 0.607994 0.223722 0.500000 
650 1 0.627934 0.224191 0.500000 
651 1 0.647879 0.224622 0.500000 
652 1 0.667829 0.225027 0.500000 
653 1 0.687783 0.225402 0.500000 
654 1 0.707743 0.225751 0.500000 
655 1 0.727708 0.226077 0.500000 
656 1 0.747678 0.226379 0.500000 
657 1 0.767654 0.226654 0.500000 
658 1 0.787632 0.226904 0.500000 
659 1 0.807615 0.227140 0.500000 
660 1 0.827604 0.227360 0.500000 
661 1 0.847594 0.227564 0.500000 
662 1 0.867589 0.227751 0.500000 
663 1 0.887586 0.227924 0.500000 
664 1 0.907581 0.228089 0.500000 
665 1 0.927579 0.228243 0.500000 
666 1 0.947580 0.228392 0.500000 
667 1 0.967605 0.228489 0.500000 
668 1 0.987634 0.228577 0.500000 
669 1 0.007189 0.234587 0.500000 
670 1 0.027214 0.235215 0.500000 
671 1 0.047243 0.235854 0.500000 
672 1 0.067275 0.236508 0.500000 
673 1 0.087343 0.237237 0.500000 
674 1 0.107410 0.237978 0.500000 
675 1 0.127478 0.238735 0.500000 
676 1 0.147548 0.239506 0.500000 
677 1 0.167619 0.240301 0.500000 
678 1 0.187690 0.241111 0.500000 
679 1 0.207757 0.241941 0.500000 
680 1 0.227820 0.242791 0.500000 
681 1 0.247879 0.243656 0.500000 
682 1 0.267932 0.244532 0.500000 
683 1 0.287973 0.245427 0.500000 
684 1 0.308003 0.246331 0.500000 
685 1 0.328018 0.247246 0.500000 
686 1 0.348024 0.248167 0.500000 
687 1 0.378398 0.232565 0.500000 
688 1 0.368016 0.249087 0.500000 
689 1 0.398362 0.233453 0.500000 
690 1 0.387990 0.250006 0.500000 
691 1 0.418314 0.234325 0.500000 
692 1 0.407950 0.250911 0.500000 
693 1 0.438254 0.235177 0.500000 
694 1 0.427896 0.251800 0.500000 
695 1 0.458186 0.235992 0.500000 
696 1 0.478113 0.236778 0.500000 
697 1 0.498034 0.237523 0.500000 
698 1 0.517956 0.238225 0.500000 
699 1 0.537881 0.238881 0.500000 
700 1 0.557808 0.239487 0.500000 
701 1 0.577738 0.240052 0.500000 
702 1 0.597674 0.240574 0.500000 
703 1 0.617615 0.241056 0.500000 
704 1 0.637564 0.241501 0.500000 
705 1 0.657518 0.241913 0.500000 
706 1 0.677478 0.242298 0.500000 
707 1 0.697445 0.242653 0.500000 
708 1 0.717417 0.242985 0.500000 
709 1 0.737393 0.243293 0.500000 
710 1 0.757374 0.243573 0.500000 
711 1 0.777362 0.243831 0.500000 
712 1 0.797350 0.244069 0.500000 
713 1 0.817342 0.244287 0.500000 
714 1 0.837338 0.244492 0.500000 
715 1 0.857342 0.244682 0.500000 
716 1 0.877347 0.244856 0.500000 
717 1 0.897350 0.245022 0.500000 
718 1 0.917356 0.245175 0.500000 
719 1 0.937367 0.245320 0.500000 
720 1 0.957383 0.245436 0.500000 
721 1 0.977417 0.245522 0.500000 
722 1 0.997455 0.245600 0.500000 
723 1 0.016737 0.251640 0.500000 
724 1 0.006256 0.268068 0.500000 
725 1 0.036760 0.252274 0.500000 
726 1 0.026272 0.268696 0.500000 
727 1 0.056787 0.252921 0.500000 
728 1 0.046292 0.269335 0.500000 
729 1 0.076841 0.253614 0.500000 
730 1 0.066319 0.269991 0.500000 
731 1 0.096903 0.254351 0.500000 
732 1 0.086381 0.270722 0.500000 
733 1 0.116969 0.255104 0.500000 
734 1 0.137040 0.255875 0.500000 
735 1 0.157112 0.256665 0.500000 
736 1 0.177184 0.257476 0.500000 
737 1 0.197257 0.258306 0.500000 
738 1 0.217327 0.259160 0.500000 
739 1 0.237395 0.260034 0.500000 
740 1 0.257458 0.260922 0.500000 
741 1 0.277510 0.261828 0.500000 
742 1 0.297556 0.262748 0.500000 
743 1 0.317587 0.263686 0.500000 
744 1 0.337605 0.264629 0.500000 
745 1 0.357609 0.265578 0.500000 
746 1 0.377596 0.266530 0.500000 
747 1 0.397569 0.267471 0.500000 
748 1 0.417525 0.268400 0.500000 
749 1 0.437469 0.269296 0.500000 
750 1 0.447835 0.252654 0.500000 
751 1 0.457402 0.270157 0.500000 
752 1 0.467764 0.253474 0.500000 
753 1 0.477329 0.270974 0.500000 
754 1 0.487688 0.254255 0.500000 
755 1 0.507612 0.254986 0.500000 
756 1 0.527538 0.255671 0.500000 
757 1 0.547470 0.256302 0.500000 
758 1 0.567404 0.256887 0.500000 
759 1 0.587344 0.257425 0.500000 
760 1 0.607289 0.257923 0.500000 
761 1 0.627241 0.258382 0.500000 
762 1 0.647202 0.258806 0.500000 
763 1 0.667168 0.259197 0.500000 
764 1 0.687139 0.259559 0.500000 
765 1 0.707117 0.259896 0.500000 
766 1 0.727100 0.260208 0.500000 
767 1 0.747087 0.260492 0.500000 
768 1 0.767081 0.260754 0.500000 
769 1 0.787080 0.260999 0.500000 
770 1 0.807081 0.261222 0.500000 
771 1 0.827083 0.261426 0.500000 
772 1 0.847088 0.261614 0.500000 
773 1 0.867100 0.261790 0.500000 
774 1 0.887112 0.261955 0.500000 
775 1 0.907128 0.262108 0.500000 
776 1 0.927144 0.262249 0.500000 
777 1 0.947159 0.262387 0.500000 
778 1 0.967200 0.262468 0.500000 
779 1 0.987245 0.262544 0.500000 
780 1 0.015779 0.285121 0.500000 
781 1 0.035792 0.285753 0.500000 
782 1 0.055810 0.286400 0.500000 
783 1 0.075855 0.287093 0.500000 
784 1 0.095911 0.287833 0.500000 
785 1 0.106444 0.271469 0.500000 
786 1 0.115971 0.288591 0.500000 
787 1 0.126512 0.272234 0.500000 
788 1 0.136039 0.289369 0.500000 
789 1 0.146584 0.273020 0.500000 
790 1 0.156113 0.290171 0.500000 
791 1 0.166659 0.273830 0.500000 
792 1 0.176192 0.290997 0.500000 
793 1 0.186736 0.274658 0.500000 
794 1 0.206812 0.275512 0.500000 
795 1 0.226888 0.276389 0.500000 
796 1 0.246962 0.277286 0.500000 
797 1 0.267028 0.278204 0.500000 
798 1 0.287084 0.279138 0.500000 
799 1 0.307131 0.280093 0.500000 
800 1 0.327164 0.281062 0.500000 
801 1 0.347183 0.282038 0.500000 
802 1 0.367183 0.283023 0.500000 
803 1 0.387168 0.284003 0.500000 
804 1 0.407136 0.284972 0.500000 
805 1 0.427089 0.285915 0.500000 
806 1 0.447027 0.286821 0.500000 
807 1 0.466957 0.287679 0.500000 
808 1 0.497255 0.271738 0.500000 
809 1 0.486886 0.288484 0.500000 
810 1 0.506814 0.289230 0.500000 
811 1 0.517182 0.272454 0.500000 
812 1 0.526749 0.289920 0.500000 
813 1 0.537116 0.273113 0.500000 
814 1 0.546691 0.290554 0.500000 
815 1 0.557054 0.273722 0.500000 
816 1 0.577001 0.274279 0.500000 
817 1 0.596952 0.274791 0.500000 
818 1 0.616912 0.275263 0.500000 
819 1 0.636878 0.275697 0.500000 
820 1 0.656851 0.276099 0.500000 
821 1 0.676828 0.276471 0.500000 
822 1 0.696810 0.276810 0.500000 
823 1 0.716801 0.277125 0.500000 
824 1 0.736798 0.277417 0.500000 
825 1 0.756797 0.277680 0.500000 
826 1 0.776804 0.277927 0.500000 
827 1 0.796813 0.278155 0.500000 
828 1 0.816825 0.278362 0.500000 
829 1 0.836838 0.278553 0.500000 
830 1 0.856852 0.278726 0.500000 
831 1 0.876871 0.278890 0.500000 
832 1 0.896894 0.279040 0.500000 
833 1 0.916921 0.279180 0.500000 
834 1 0.936949 0.279312 0.500000 
835 1 0.956982 0.279417 0.500000 
836 1 0.977036 0.279488 0.500000 
837 1 0.997089 0.279555 0.500000 
838 1 0.005284 0.301547 0.500000 
839 1 0.025288 0.302175 0.500000 
840 1 0.045299 0.302815 0.500000 
841 1 0.065313 0.303468 0.500000 
842 1 0.085367 0.304197 0.500000 
843 1 0.105422 0.304948 0.500000 
844 1 0.125483 0.305714 0.500000 
845 1 0.145552 0.306507 0.500000 
846 1 0.165626 0.307325 0.500000 
847 1 0.196271 0.291848 0.500000 
848 1 0.185705 0.308171 0.500000 
849 1 0.216351 0.292726 0.500000 
850 1 0.205786 0.309045 0.500000 
851 1 0.236432 0.293625 0.500000 
852 1 0.225873 0.309945 0.500000 
853 1 0.256510 0.294552 0.500000 
854 1 0.245958 0.310874 0.500000 
855 1 0.276582 0.295500 0.500000 
856 1 0.266042 0.311829 0.500000 
857 1 0.296642 0.296469 0.500000 
858 1 0.316691 0.297461 0.500000 
859 1 0.336725 0.298464 0.500000 
860 1 0.356741 0.299481 0.500000 
861 1 0.376741 0.300499 0.500000 
862 1 0.396720 0.301512 0.500000 
863 1 0.416683 0.302502 0.500000 
864 1 0.436628 0.303460 0.500000 
865 1 0.456564 0.304367 0.500000 
866 1 0.476494 0.305218 0.500000 
867 1 0.496425 0.306003 0.500000 
868 1 0.516362 0.306724 0.500000 
869 1 0.536308 0.307385 0.500000 
870 1 0.566644 0.291132 0.500000 
871 1 0.556264 0.307983 0.500000 
872 1 0.586602 0.291663 0.500000 
873 1 0.576229 0.308533 0.500000 
874 1 0.606567 0.292144 0.500000 
875 1 0.596203 0.309029 0.500000 
876 1 0.626540 0.292592 0.500000 
877 1 0.616185 0.309484 0.500000 
878 1 0.646520 0.293002 0.500000 
879 1 0.636175 0.309907 0.500000 
880 1 0.666506 0.293380 0.500000 
881 1 0.686498 0.293729 0.500000 