ITEM: TIMESTEP
2100
ITEM: NUMBER OF ATOMS
2850
ITEM: BOX BOUNDS ss ss pp
-28.0536 28.3253 
-28.9988 28.9984 
-0.5 0.5 
ITEM: ATOMS id type xs ys zs
1 1 0.012661 0.000000 0.500000 
2 1 0.032688 0.000597 0.500000 
3 1 0.052715 0.001202 0.500000 
4 1 0.072742 0.001814 0.500000 
5 1 0.092767 0.002433 0.500000 
6 1 0.112794 0.003060 0.500000 
7 1 0.132817 0.003697 0.500000 
8 1 0.152841 0.004338 0.500000 
9 1 0.172861 0.004988 0.500000 
10 1 0.192879 0.005643 0.500000 
11 1 0.212895 0.006305 0.500000 
12 1 0.232906 0.006973 0.500000 
13 1 0.252912 0.007645 0.500000 
14 1 0.272914 0.008319 0.500000 
15 1 0.292911 0.008997 0.500000 
16 1 0.312901 0.009676 0.500000 
17 1 0.332885 0.010356 0.500000 
18 1 0.352861 0.011033 0.500000 
19 1 0.372830 0.011707 0.500000 
20 1 0.392791 0.012376 0.500000 
21 1 0.022340 0.017073 0.500000 
22 1 0.042369 0.017677 0.500000 
23 1 0.062397 0.018289 0.500000 
24 1 0.082426 0.018911 0.500000 
25 1 0.102455 0.019539 0.500000 
26 1 0.122484 0.020177 0.500000 
27 1 0.142511 0.020822 0.500000 
28 1 0.162536 0.021475 0.500000 
29 1 0.182559 0.022136 0.500000 
30 1 0.202579 0.022803 0.500000 
31 1 0.222596 0.023475 0.500000 
32 1 0.242610 0.024155 0.500000 
33 1 0.262618 0.024839 0.500000 
34 1 0.282622 0.025527 0.500000 
35 1 0.302619 0.026217 0.500000 
36 1 0.322610 0.026908 0.500000 
37 1 0.342593 0.027600 0.500000 
38 1 0.362570 0.028289 0.500000 
39 1 0.382537 0.028974 0.500000 
40 1 0.402497 0.029655 0.500000 
41 1 0.412744 0.013039 0.500000 
42 1 0.422448 0.030326 0.500000 
43 1 0.432688 0.013694 0.500000 
44 1 0.442390 0.030989 0.500000 
45 1 0.452624 0.014337 0.500000 
46 1 0.462324 0.031639 0.500000 
47 1 0.472553 0.014968 0.500000 
48 1 0.482250 0.032276 0.500000 
49 1 0.492474 0.015584 0.500000 
50 1 0.512388 0.016184 0.500000 
51 1 0.532295 0.016766 0.500000 
52 1 0.552198 0.017330 0.500000 
53 1 0.572095 0.017873 0.500000 
54 1 0.591989 0.018396 0.500000 
55 1 0.611880 0.018896 0.500000 
56 1 0.631769 0.019373 0.500000 
57 1 0.651657 0.019829 0.500000 
58 1 0.671546 0.020261 0.500000 
59 1 0.691436 0.020670 0.500000 
60 1 0.711328 0.021058 0.500000 
61 1 0.731222 0.021423 0.500000 
62 1 0.751120 0.021768 0.500000 
63 1 0.771021 0.022094 0.500000 
64 1 0.790927 0.022399 0.500000 
65 1 0.810837 0.022687 0.500000 
66 1 0.830751 0.022958 0.500000 
67 1 0.850671 0.023211 0.500000 
68 1 0.870595 0.023449 0.500000 
69 1 0.890525 0.023674 0.500000 
70 1 0.910459 0.023884 0.500000 
71 1 0.930398 0.024080 0.500000 
72 1 0.950341 0.024267 0.500000 
73 1 0.970290 0.024443 0.500000 
74 1 0.990243 0.024606 0.500000 
75 1 0.011983 0.033545 0.500000 
76 1 0.032014 0.034148 0.500000 
77 1 0.021650 0.050615 0.500000 
78 1 0.052044 0.034760 0.500000 
79 1 0.041680 0.051227 0.500000 
80 1 0.072075 0.035381 0.500000 
81 1 0.061715 0.051847 0.500000 
82 1 0.092107 0.036012 0.500000 
83 1 0.081786 0.052490 0.500000 
84 1 0.112138 0.036650 0.500000 
85 1 0.132168 0.037297 0.500000 
86 1 0.152197 0.037952 0.500000 
87 1 0.172226 0.038617 0.500000 
88 1 0.192251 0.039288 0.500000 
89 1 0.212274 0.039967 0.500000 
90 1 0.232293 0.040654 0.500000 
91 1 0.252309 0.041345 0.500000 
92 1 0.272318 0.042042 0.500000 
93 1 0.292324 0.042743 0.500000 
94 1 0.312323 0.043447 0.500000 
95 1 0.332314 0.044150 0.500000 
96 1 0.352297 0.044856 0.500000 
97 1 0.372273 0.045557 0.500000 
98 1 0.392240 0.046254 0.500000 
99 1 0.412198 0.046944 0.500000 
100 1 0.432147 0.047626 0.500000 
101 1 0.452087 0.048297 0.500000 
102 1 0.472018 0.048954 0.500000 
103 1 0.502167 0.032896 0.500000 
104 1 0.491940 0.049595 0.500000 
105 1 0.522078 0.033498 0.500000 
106 1 0.511855 0.050220 0.500000 
107 1 0.541983 0.034081 0.500000 
108 1 0.531762 0.050823 0.500000 
109 1 0.561882 0.034643 0.500000 
110 1 0.551663 0.051406 0.500000 
111 1 0.581777 0.035184 0.500000 
112 1 0.571560 0.051966 0.500000 
113 1 0.601668 0.035702 0.500000 
114 1 0.591452 0.052503 0.500000 
115 1 0.621558 0.036195 0.500000 
116 1 0.641446 0.036666 0.500000 
117 1 0.661334 0.037110 0.500000 
118 1 0.681223 0.037533 0.500000 
119 1 0.701115 0.037931 0.500000 
120 1 0.721007 0.038307 0.500000 
121 1 0.740905 0.038660 0.500000 
122 1 0.760806 0.038993 0.500000 
123 1 0.780711 0.039305 0.500000 
124 1 0.800620 0.039597 0.500000 
125 1 0.820536 0.039873 0.500000 
126 1 0.840456 0.040130 0.500000 
127 1 0.860382 0.040369 0.500000 
128 1 0.880312 0.040595 0.500000 
129 1 0.900248 0.040807 0.500000 
130 1 0.920188 0.041005 0.500000 
131 1 0.940134 0.041192 0.500000 
132 1 0.960084 0.041368 0.500000 
133 1 0.980040 0.041531 0.500000 
134 1 1.000000 0.041686 0.500000 
135 1 0.011275 0.067077 0.500000 
136 1 0.031308 0.067688 0.500000 
137 1 0.051342 0.068307 0.500000 
138 1 0.071376 0.068936 0.500000 
139 1 0.091457 0.069610 0.500000 
140 1 0.101817 0.053134 0.500000 
141 1 0.111499 0.070272 0.500000 
142 1 0.121851 0.053787 0.500000 
143 1 0.131539 0.070930 0.500000 
144 1 0.141886 0.054451 0.500000 
145 1 0.151577 0.071604 0.500000 
146 1 0.161915 0.055117 0.500000 
147 1 0.171613 0.072299 0.500000 
148 1 0.181955 0.055808 0.500000 
149 1 0.201993 0.056482 0.500000 
150 1 0.222021 0.057185 0.500000 
151 1 0.242032 0.057875 0.500000 
152 1 0.262045 0.058597 0.500000 
153 1 0.282060 0.059314 0.500000 
154 1 0.302062 0.060026 0.500000 
155 1 0.322047 0.060724 0.500000 
156 1 0.342037 0.061431 0.500000 
157 1 0.362023 0.062199 0.500000 
158 1 0.381973 0.062913 0.500000 
159 1 0.401928 0.063570 0.500000 
160 1 0.421883 0.064313 0.500000 
161 1 0.441812 0.064992 0.500000 
162 1 0.461743 0.065639 0.500000 
163 1 0.481668 0.066311 0.500000 
164 1 0.501586 0.066948 0.500000 
165 1 0.521510 0.067572 0.500000 
166 1 0.541413 0.068196 0.500000 
167 1 0.561312 0.068770 0.500000 
168 1 0.581203 0.069325 0.500000 
169 1 0.601098 0.069834 0.500000 
170 1 0.611341 0.053013 0.500000 
171 1 0.620994 0.070346 0.500000 
172 1 0.631230 0.053499 0.500000 
173 1 0.640883 0.070822 0.500000 
174 1 0.651117 0.053960 0.500000 
175 1 0.671006 0.054396 0.500000 
176 1 0.660767 0.071276 0.500000 
177 1 0.690897 0.054806 0.500000 
178 1 0.680655 0.071697 0.500000 
179 1 0.710789 0.055192 0.500000 
180 1 0.700547 0.072089 0.500000 
181 1 0.730685 0.055554 0.500000 
182 1 0.720443 0.072450 0.500000 
183 1 0.750586 0.055894 0.500000 
184 1 0.770490 0.056213 0.500000 
185 1 0.790400 0.056511 0.500000 
186 1 0.810316 0.056789 0.500000 
187 1 0.830238 0.057049 0.500000 
188 1 0.850164 0.057294 0.500000 
189 1 0.870095 0.057522 0.500000 
190 1 0.890032 0.057734 0.500000 
191 1 0.909975 0.057934 0.500000 
192 1 0.929922 0.058120 0.500000 
193 1 0.949875 0.058294 0.500000 
194 1 0.969833 0.058458 0.500000 
195 1 0.989796 0.058613 0.500000 
196 1 0.020924 0.084144 0.500000 
197 1 0.040959 0.084763 0.500000 
198 1 0.060994 0.085390 0.500000 
199 1 0.081048 0.086044 0.500000 
200 1 0.101099 0.086737 0.500000 
201 1 0.121163 0.087405 0.500000 
202 1 0.141211 0.088072 0.500000 
203 1 0.161248 0.088769 0.500000 
204 1 0.191664 0.072990 0.500000 
205 1 0.181302 0.089474 0.500000 
206 1 0.211705 0.073698 0.500000 
207 1 0.201345 0.090189 0.500000 
208 1 0.221384 0.090928 0.500000 
209 1 0.231738 0.074418 0.500000 
210 1 0.241422 0.091671 0.500000 
211 1 0.251734 0.075140 0.500000 
212 1 0.261432 0.092407 0.500000 
213 1 0.271750 0.075853 0.500000 
214 1 0.291774 0.076579 0.500000 
215 1 0.311774 0.077320 0.500000 
216 1 0.331749 0.078005 0.500000 
217 1 0.351715 0.078763 0.500000 
218 1 0.371703 0.079545 0.500000 
219 1 0.391672 0.080223 0.500000 
220 1 0.411591 0.080948 0.500000 
221 1 0.431528 0.081687 0.500000 
222 1 0.451466 0.082333 0.500000 
223 1 0.471379 0.083006 0.500000 
224 1 0.491306 0.083674 0.500000 
225 1 0.511228 0.084323 0.500000 
226 1 0.531127 0.084979 0.500000 
227 1 0.551033 0.085568 0.500000 
228 1 0.570936 0.086140 0.500000 
229 1 0.590824 0.086670 0.500000 
230 1 0.610700 0.087190 0.500000 
231 1 0.630592 0.087678 0.500000 
232 1 0.650484 0.088158 0.500000 
233 1 0.670370 0.088583 0.500000 
234 1 0.690269 0.088981 0.500000 
235 1 0.710166 0.089364 0.500000 
236 1 0.730072 0.089708 0.500000 
237 1 0.740341 0.072804 0.500000 
238 1 0.749997 0.090019 0.500000 
239 1 0.760253 0.073108 0.500000 
240 1 0.769914 0.090324 0.500000 
241 1 0.780166 0.073421 0.500000 
242 1 0.789832 0.090636 0.500000 
243 1 0.800064 0.073705 0.500000 
244 1 0.809757 0.090902 0.500000 
245 1 0.819976 0.073968 0.500000 
246 1 0.829675 0.091152 0.500000 
247 1 0.839918 0.074228 0.500000 
248 1 0.849620 0.091398 0.500000 
249 1 0.859865 0.074462 0.500000 
250 1 0.869567 0.091612 0.500000 
251 1 0.879795 0.074670 0.500000 
252 1 0.889525 0.091784 0.500000 
253 1 0.899737 0.074865 0.500000 
254 1 0.909485 0.091976 0.500000 
255 1 0.919703 0.075043 0.500000 
256 1 0.929448 0.092141 0.500000 
257 1 0.939676 0.075215 0.500000 
258 1 0.949407 0.092323 0.500000 
259 1 0.959621 0.075390 0.500000 
260 1 0.979588 0.075542 0.500000 
261 1 0.999557 0.075685 0.500000 
262 1 0.010532 0.100598 0.500000 
263 1 0.030566 0.101214 0.500000 
264 1 0.050602 0.101839 0.500000 
265 1 0.070640 0.102476 0.500000 
266 1 0.090699 0.103178 0.500000 
267 1 0.110757 0.103854 0.500000 
268 1 0.130825 0.104533 0.500000 
269 1 0.150879 0.105227 0.500000 
270 1 0.170931 0.105945 0.500000 
271 1 0.190979 0.106666 0.500000 
272 1 0.211005 0.107415 0.500000 
273 1 0.231053 0.108161 0.500000 
274 1 0.251078 0.108930 0.500000 
275 1 0.271112 0.109661 0.500000 
276 1 0.281444 0.093112 0.500000 
277 1 0.291119 0.110402 0.500000 
278 1 0.301445 0.093855 0.500000 
279 1 0.311122 0.111149 0.500000 
280 1 0.321455 0.094606 0.500000 
281 1 0.331128 0.111936 0.500000 
282 1 0.341418 0.095343 0.500000 
283 1 0.361392 0.096112 0.500000 
284 1 0.381388 0.096858 0.500000 
285 1 0.401315 0.097608 0.500000 
286 1 0.421245 0.098334 0.500000 
287 1 0.441210 0.099004 0.500000 
288 1 0.461130 0.099710 0.500000 
289 1 0.481054 0.100392 0.500000 
290 1 0.500965 0.101067 0.500000 
291 1 0.520872 0.101737 0.500000 
292 1 0.540789 0.102373 0.500000 
293 1 0.560675 0.102964 0.500000 
294 1 0.580544 0.103506 0.500000 
295 1 0.600425 0.104042 0.500000 
296 1 0.620327 0.104545 0.500000 
297 1 0.640221 0.105023 0.500000 
298 1 0.660118 0.105484 0.500000 
299 1 0.680023 0.105886 0.500000 
300 1 0.699933 0.106268 0.500000 
301 1 0.719847 0.106612 0.500000 
302 1 0.739757 0.106940 0.500000 
303 1 0.759686 0.107238 0.500000 
304 1 0.779610 0.107549 0.500000 
305 1 0.799547 0.107832 0.500000 
306 1 0.819479 0.108103 0.500000 
307 1 0.839423 0.108321 0.500000 
308 1 0.859375 0.108552 0.500000 
309 1 0.879315 0.108717 0.500000 
310 1 0.899264 0.108901 0.500000 
311 1 0.919229 0.109081 0.500000 
312 1 0.939190 0.109250 0.500000 
313 1 0.969375 0.092475 0.500000 
314 1 0.959160 0.109410 0.500000 
315 1 0.989349 0.092617 0.500000 
316 1 0.979136 0.109550 0.500000 
317 1 0.999117 0.109681 0.500000 
318 1 0.020165 0.117663 0.500000 
319 1 0.040201 0.118287 0.500000 
320 1 0.060239 0.118920 0.500000 
321 1 0.080299 0.119596 0.500000 
322 1 0.100368 0.120296 0.500000 
323 1 0.120430 0.120989 0.500000 
324 1 0.140492 0.121686 0.500000 
325 1 0.160533 0.122403 0.500000 
326 1 0.180600 0.123134 0.500000 
327 1 0.200649 0.123892 0.500000 
328 1 0.220693 0.124644 0.500000 
329 1 0.240722 0.125419 0.500000 
330 1 0.260755 0.126174 0.500000 
331 1 0.280781 0.126959 0.500000 
332 1 0.300787 0.127715 0.500000 
333 1 0.320783 0.128473 0.500000 
334 1 0.340783 0.129281 0.500000 
335 1 0.351090 0.112703 0.500000 
336 1 0.360756 0.130066 0.500000 
337 1 0.371056 0.113452 0.500000 
338 1 0.380689 0.130846 0.500000 
339 1 0.391014 0.114253 0.500000 
340 1 0.400644 0.131628 0.500000 
341 1 0.410960 0.114988 0.500000 
342 1 0.420623 0.132319 0.500000 
343 1 0.430927 0.115658 0.500000 
344 1 0.450851 0.116400 0.500000 
345 1 0.470776 0.117096 0.500000 
346 1 0.490699 0.117800 0.500000 
347 1 0.510609 0.118489 0.500000 
348 1 0.530520 0.119135 0.500000 
349 1 0.550429 0.119783 0.500000 
350 1 0.570312 0.120373 0.500000 
351 1 0.590173 0.120905 0.500000 
352 1 0.610059 0.121413 0.500000 
353 1 0.629962 0.121906 0.500000 
354 1 0.649860 0.122377 0.500000 
355 1 0.669770 0.122803 0.500000 
356 1 0.689693 0.123187 0.500000 
357 1 0.709624 0.123511 0.500000 
358 1 0.729545 0.123849 0.500000 
359 1 0.749475 0.124158 0.500000 
360 1 0.769391 0.124473 0.500000 
361 1 0.789321 0.124760 0.500000 
362 1 0.809250 0.125029 0.500000 
363 1 0.829196 0.125261 0.500000 
364 1 0.849141 0.125466 0.500000 
365 1 0.869096 0.125676 0.500000 
366 1 0.889039 0.125838 0.500000 
367 1 0.909007 0.126015 0.500000 
368 1 0.928973 0.126190 0.500000 
369 1 0.948940 0.126349 0.500000 
370 1 0.968919 0.126487 0.500000 
371 1 0.988905 0.126616 0.500000 
372 1 0.009754 0.134110 0.500000 
373 1 0.029790 0.134729 0.500000 
374 1 0.019367 0.151171 0.500000 
375 1 0.049825 0.135360 0.500000 
376 1 0.039403 0.151799 0.500000 
377 1 0.069865 0.136003 0.500000 
378 1 0.089938 0.136704 0.500000 
379 1 0.110003 0.137431 0.500000 
380 1 0.130094 0.138132 0.500000 
381 1 0.150165 0.138857 0.500000 
382 1 0.170221 0.139587 0.500000 
383 1 0.190271 0.140355 0.500000 
384 1 0.210316 0.141116 0.500000 
385 1 0.230365 0.141889 0.500000 
386 1 0.250389 0.142668 0.500000 
387 1 0.270401 0.143451 0.500000 
388 1 0.290448 0.144246 0.500000 
389 1 0.310455 0.145028 0.500000 
390 1 0.330436 0.145811 0.500000 
391 1 0.350432 0.146638 0.500000 
392 1 0.370406 0.147461 0.500000 
393 1 0.390366 0.148231 0.500000 
394 1 0.410336 0.148964 0.500000 
395 1 0.440547 0.133068 0.500000 
396 1 0.430265 0.149748 0.500000 
397 1 0.460482 0.133791 0.500000 
398 1 0.450200 0.150467 0.500000 
399 1 0.480401 0.134514 0.500000 
400 1 0.470125 0.151227 0.500000 
401 1 0.500315 0.135225 0.500000 
402 1 0.490039 0.151958 0.500000 
403 1 0.520236 0.135913 0.500000 
404 1 0.540130 0.136566 0.500000 
405 1 0.560031 0.137190 0.500000 
406 1 0.579915 0.137778 0.500000 
407 1 0.599802 0.138305 0.500000 
408 1 0.619690 0.138787 0.500000 
409 1 0.639592 0.139256 0.500000 
410 1 0.659507 0.139707 0.500000 
411 1 0.679434 0.140106 0.500000 
412 1 0.699362 0.140434 0.500000 
413 1 0.719269 0.140765 0.500000 
414 1 0.739194 0.141084 0.500000 
415 1 0.759129 0.141391 0.500000 
416 1 0.779070 0.141673 0.500000 
417 1 0.799012 0.141952 0.500000 
418 1 0.818959 0.142191 0.500000 
419 1 0.838903 0.142418 0.500000 
420 1 0.858845 0.142610 0.500000 
421 1 0.878802 0.142798 0.500000 
422 1 0.898768 0.142957 0.500000 
423 1 0.918731 0.143128 0.500000 
424 1 0.938705 0.143284 0.500000 
425 1 0.958701 0.143428 0.500000 
426 1 0.978689 0.143555 0.500000 
427 1 0.998682 0.143674 0.500000 
428 1 0.008938 0.167610 0.500000 
429 1 0.028972 0.168234 0.500000 
430 1 0.049008 0.168868 0.500000 
431 1 0.059442 0.152437 0.500000 
432 1 0.069047 0.169517 0.500000 
433 1 0.079508 0.153108 0.500000 
434 1 0.089142 0.170245 0.500000 
435 1 0.099588 0.153846 0.500000 
436 1 0.109230 0.170963 0.500000 
437 1 0.119683 0.154552 0.500000 
438 1 0.139764 0.155284 0.500000 
439 1 0.129300 0.171681 0.500000 
440 1 0.159811 0.156029 0.500000 
441 1 0.179864 0.156783 0.500000 
442 1 0.199924 0.157564 0.500000 
443 1 0.219976 0.158338 0.500000 
444 1 0.240017 0.159140 0.500000 
445 1 0.260050 0.159935 0.500000 
446 1 0.280083 0.160711 0.500000 
447 1 0.300104 0.161542 0.500000 
448 1 0.320095 0.162359 0.500000 
449 1 0.340076 0.163171 0.500000 
450 1 0.360066 0.164030 0.500000 
451 1 0.380068 0.164827 0.500000 
452 1 0.400034 0.165593 0.500000 
453 1 0.419970 0.166397 0.500000 
454 1 0.439920 0.167158 0.500000 
455 1 0.459837 0.167917 0.500000 
456 1 0.479759 0.168683 0.500000 
457 1 0.499675 0.169404 0.500000 
458 1 0.509953 0.152658 0.500000 
459 1 0.519573 0.170130 0.500000 
460 1 0.529856 0.153358 0.500000 
461 1 0.539476 0.170797 0.500000 
462 1 0.549753 0.153992 0.500000 
463 1 0.559375 0.171429 0.500000 
464 1 0.569645 0.154612 0.500000 
465 1 0.579280 0.172011 0.500000 
466 1 0.589543 0.155167 0.500000 
467 1 0.609445 0.155678 0.500000 
468 1 0.629356 0.156146 0.500000 
469 1 0.649270 0.156600 0.500000 
470 1 0.669187 0.157010 0.500000 
471 1 0.689107 0.157376 0.500000 
472 1 0.709016 0.157700 0.500000 
473 1 0.728945 0.158015 0.500000 
474 1 0.748883 0.158317 0.500000 
475 1 0.768827 0.158606 0.500000 
476 1 0.788774 0.158876 0.500000 
477 1 0.808726 0.159122 0.500000 
478 1 0.828684 0.159358 0.500000 
479 1 0.848639 0.159564 0.500000 
480 1 0.868583 0.159757 0.500000 
481 1 0.888530 0.159908 0.500000 
482 1 0.908502 0.160071 0.500000 
483 1 0.928485 0.160229 0.500000 
484 1 0.948477 0.160370 0.500000 
485 1 0.968470 0.160496 0.500000 
486 1 0.988467 0.160611 0.500000 
487 1 0.018532 0.184668 0.500000 
488 1 0.038566 0.185299 0.500000 
489 1 0.058602 0.185942 0.500000 
490 1 0.078680 0.186641 0.500000 
491 1 0.098741 0.187362 0.500000 
492 1 0.118813 0.188084 0.500000 
493 1 0.138889 0.188841 0.500000 
494 1 0.149364 0.172451 0.500000 
495 1 0.158977 0.189599 0.500000 
496 1 0.169444 0.173195 0.500000 
497 1 0.179052 0.190390 0.500000 
498 1 0.189509 0.173980 0.500000 
499 1 0.199137 0.191195 0.500000 
500 1 0.209564 0.174776 0.500000 
501 1 0.219197 0.192010 0.500000 
502 1 0.229618 0.175579 0.500000 
503 1 0.249682 0.176400 0.500000 
504 1 0.269727 0.177198 0.500000 
505 1 0.289735 0.178019 0.500000 
506 1 0.309747 0.178880 0.500000 
507 1 0.329754 0.179717 0.500000 
508 1 0.349720 0.180566 0.500000 
509 1 0.369710 0.181375 0.500000 
510 1 0.389691 0.182198 0.500000 
511 1 0.409640 0.183019 0.500000 
512 1 0.429597 0.183815 0.500000 
513 1 0.449529 0.184621 0.500000 
514 1 0.469444 0.185399 0.500000 
515 1 0.489362 0.186142 0.500000 
516 1 0.509263 0.186902 0.500000 
517 1 0.529176 0.187589 0.500000 
518 1 0.549086 0.188244 0.500000 
519 1 0.568987 0.188854 0.500000 
520 1 0.588879 0.189420 0.500000 
521 1 0.599176 0.172557 0.500000 
522 1 0.608798 0.189928 0.500000 
523 1 0.619077 0.173039 0.500000 
524 1 0.628710 0.190410 0.500000 
525 1 0.638981 0.173487 0.500000 
526 1 0.648615 0.190828 0.500000 
527 1 0.658906 0.173924 0.500000 
528 1 0.668534 0.191232 0.500000 
529 1 0.678825 0.174312 0.500000 
530 1 0.688468 0.191586 0.500000 
531 1 0.698748 0.174647 0.500000 
532 1 0.718673 0.174954 0.500000 
533 1 0.738610 0.175257 0.500000 
534 1 0.758541 0.175548 0.500000 
535 1 0.778481 0.175827 0.500000 
536 1 0.798463 0.176074 0.500000 
537 1 0.818438 0.176290 0.500000 
538 1 0.838401 0.176521 0.500000 
539 1 0.858350 0.176702 0.500000 
540 1 0.878312 0.176874 0.500000 
541 1 0.898263 0.177010 0.500000 
542 1 0.918250 0.177165 0.500000 
543 1 0.938250 0.177318 0.500000 
544 1 0.958249 0.177440 0.500000 
545 1 0.978251 0.177553 0.500000 
546 1 0.998258 0.177659 0.500000 
547 1 0.008083 0.201103 0.500000 
548 1 0.028113 0.201727 0.500000 
549 1 0.048147 0.202367 0.500000 
550 1 0.068185 0.203017 0.500000 
551 1 0.088265 0.203751 0.500000 
552 1 0.108336 0.204483 0.500000 
553 1 0.128396 0.205238 0.500000 
554 1 0.148474 0.205994 0.500000 
555 1 0.168553 0.206784 0.500000 
556 1 0.188643 0.207582 0.500000 
557 1 0.208743 0.208408 0.500000 
558 1 0.239241 0.192827 0.500000 
559 1 0.228806 0.209250 0.500000 
560 1 0.259317 0.193653 0.500000 
561 1 0.248861 0.210066 0.500000 
562 1 0.279351 0.194517 0.500000 
563 1 0.268907 0.210958 0.500000 
564 1 0.299357 0.195368 0.500000 
565 1 0.288939 0.211857 0.500000 
566 1 0.319387 0.196218 0.500000 
567 1 0.339391 0.197094 0.500000 
568 1 0.359388 0.197925 0.500000 
569 1 0.379347 0.198760 0.500000 
570 1 0.399307 0.199623 0.500000 
571 1 0.419272 0.200446 0.500000 
572 1 0.439206 0.201293 0.500000 
573 1 0.459132 0.202113 0.500000 
574 1 0.479050 0.202889 0.500000 
575 1 0.498949 0.203643 0.500000 
576 1 0.518881 0.204370 0.500000 
577 1 0.538784 0.205056 0.500000 
578 1 0.558688 0.205694 0.500000 
579 1 0.578594 0.206301 0.500000 
580 1 0.598507 0.206817 0.500000 
581 1 0.618417 0.207322 0.500000 
582 1 0.638348 0.207761 0.500000 
583 1 0.658270 0.208167 0.500000 
584 1 0.678198 0.208525 0.500000 
585 1 0.708400 0.191907 0.500000 
586 1 0.698143 0.208846 0.500000 
587 1 0.728341 0.192197 0.500000 
588 1 0.718088 0.209154 0.500000 
589 1 0.748286 0.192492 0.500000 
590 1 0.738037 0.209439 0.500000 
591 1 0.768239 0.192784 0.500000 
592 1 0.758000 0.209709 0.500000 
593 1 0.788211 0.193011 0.500000 
594 1 0.777980 0.209977 0.500000 
595 1 0.808194 0.193248 0.500000 
596 1 0.797949 0.210188 0.500000 
597 1 0.828153 0.193458 0.500000 
598 1 0.817914 0.210422 0.500000 
599 1 0.848126 0.193673 0.500000 
600 1 0.837885 0.210612 0.500000 
601 1 0.868078 0.193825 0.500000 
602 1 0.857866 0.210804 0.500000 
603 1 0.888039 0.193980 0.500000 
604 1 0.877831 0.210946 0.500000 
605 1 0.908006 0.194111 0.500000 
606 1 0.897795 0.211083 0.500000 
607 1 0.928001 0.194253 0.500000 
608 1 0.917787 0.211203 0.500000 
609 1 0.948021 0.194385 0.500000 
610 1 0.937792 0.211321 0.500000 
611 1 0.957807 0.211443 0.500000 
612 1 0.968031 0.194496 0.500000 
613 1 0.977825 0.211543 0.500000 
614 1 0.988043 0.194599 0.500000 
615 1 0.997847 0.211634 0.500000 
616 1 0.017654 0.218157 0.500000 
617 1 0.037684 0.218790 0.500000 
618 1 0.057718 0.219436 0.500000 
619 1 0.077775 0.220130 0.500000 
620 1 0.097843 0.220873 0.500000 
621 1 0.117909 0.221630 0.500000 
622 1 0.137991 0.222383 0.500000 
623 1 0.158076 0.223158 0.500000 
624 1 0.178155 0.223963 0.500000 
625 1 0.198249 0.224765 0.500000 
626 1 0.218343 0.225625 0.500000 
627 1 0.238417 0.226479 0.500000 
628 1 0.258453 0.227358 0.500000 
629 1 0.278506 0.228272 0.500000 
630 1 0.298577 0.229153 0.500000 
631 1 0.308969 0.212688 0.500000 
632 1 0.318587 0.230062 0.500000 
633 1 0.328988 0.213580 0.500000 
634 1 0.338579 0.230940 0.500000 
635 1 0.349006 0.214443 0.500000 
636 1 0.358569 0.231843 0.500000 
637 1 0.368986 0.215332 0.500000 
638 1 0.388932 0.216194 0.500000 
639 1 0.408915 0.217040 0.500000 
640 1 0.428860 0.217932 0.500000 
641 1 0.448793 0.218772 0.500000 
642 1 0.468737 0.219598 0.500000 
643 1 0.488655 0.220397 0.500000 
644 1 0.508566 0.221132 0.500000 
645 1 0.528468 0.221870 0.500000 
646 1 0.548381 0.222528 0.500000 
647 1 0.568284 0.223154 0.500000 
648 1 0.588207 0.223716 0.500000 
649 1 0.608101 0.224244 0.500000 
650 1 0.628011 0.224679 0.500000 
651 1 0.647935 0.225095 0.500000 
652 1 0.667893 0.225461 0.500000 
653 1 0.687855 0.225784 0.500000 
654 1 0.707791 0.226101 0.500000 
655 1 0.727728 0.226405 0.500000 
656 1 0.747676 0.226667 0.500000 
657 1 0.767647 0.226909 0.500000 
658 1 0.787645 0.227150 0.500000 
659 1 0.807609 0.227375 0.500000 
660 1 0.827601 0.227571 0.500000 
661 1 0.847590 0.227765 0.500000 
662 1 0.867574 0.227915 0.500000 
663 1 0.887565 0.228060 0.500000 
664 1 0.907560 0.228172 0.500000 
665 1 0.927570 0.228282 0.500000 
666 1 0.947580 0.228392 0.500000 
667 1 0.967605 0.228489 0.500000 
668 1 0.987634 0.228577 0.500000 
669 1 0.007189 0.234587 0.500000 
670 1 0.027214 0.235215 0.500000 
671 1 0.047243 0.235854 0.500000 
672 1 0.067275 0.236508 0.500000 
673 1 0.087355 0.237255 0.500000 
674 1 0.107429 0.238020 0.500000 
675 1 0.127495 0.238764 0.500000 
676 1 0.147576 0.239514 0.500000 
677 1 0.167666 0.240322 0.500000 
678 1 0.187757 0.241137 0.500000 
679 1 0.207837 0.241977 0.500000 
680 1 0.227930 0.242851 0.500000 
681 1 0.248011 0.243759 0.500000 
682 1 0.268071 0.244658 0.500000 
683 1 0.288123 0.245556 0.500000 
684 1 0.308146 0.246508 0.500000 
685 1 0.328175 0.247442 0.500000 
686 1 0.348160 0.248345 0.500000 
687 1 0.378560 0.232769 0.500000 
688 1 0.368142 0.249293 0.500000 
689 1 0.398551 0.233612 0.500000 
690 1 0.388151 0.250190 0.500000 
691 1 0.418498 0.234536 0.500000 
692 1 0.408096 0.251125 0.500000 
693 1 0.438441 0.235432 0.500000 
694 1 0.428045 0.252054 0.500000 
695 1 0.458368 0.236266 0.500000 
696 1 0.478296 0.237117 0.500000 
697 1 0.498224 0.237907 0.500000 
698 1 0.518131 0.238672 0.500000 
699 1 0.538046 0.239358 0.500000 
700 1 0.557959 0.240025 0.500000 
701 1 0.577876 0.240593 0.500000 
702 1 0.597791 0.241141 0.500000 
703 1 0.617723 0.241618 0.500000 
704 1 0.637637 0.242035 0.500000 
705 1 0.657585 0.242381 0.500000 
706 1 0.677527 0.242731 0.500000 
707 1 0.697475 0.243043 0.500000 
708 1 0.717445 0.243347 0.500000 
709 1 0.737424 0.243634 0.500000 
710 1 0.757394 0.243884 0.500000 
711 1 0.777375 0.244103 0.500000 
712 1 0.797337 0.244340 0.500000 
713 1 0.817311 0.244526 0.500000 
714 1 0.837300 0.244714 0.500000 
715 1 0.857319 0.244890 0.500000 
716 1 0.877318 0.245019 0.500000 
717 1 0.897323 0.245145 0.500000 
718 1 0.917337 0.245245 0.500000 
719 1 0.937361 0.245342 0.500000 
720 1 0.957383 0.245436 0.500000 
721 1 0.977417 0.245522 0.500000 
722 1 0.997455 0.245600 0.500000 
723 1 0.016737 0.251640 0.500000 
724 1 0.006256 0.268068 0.500000 
725 1 0.036760 0.252274 0.500000 
726 1 0.026272 0.268696 0.500000 
727 1 0.056787 0.252921 0.500000 
728 1 0.046292 0.269335 0.500000 
729 1 0.076853 0.253633 0.500000 
730 1 0.066319 0.269991 0.500000 
731 1 0.096919 0.254386 0.500000 
732 1 0.086375 0.270743 0.500000 
733 1 0.116993 0.255146 0.500000 
734 1 0.137063 0.255884 0.500000 
735 1 0.157144 0.256652 0.500000 
736 1 0.177244 0.257487 0.500000 
737 1 0.197333 0.258342 0.500000 
738 1 0.217425 0.259212 0.500000 
739 1 0.237504 0.260124 0.500000 
740 1 0.257582 0.261039 0.500000 
741 1 0.277658 0.261959 0.500000 
742 1 0.297684 0.262924 0.500000 
743 1 0.317719 0.263881 0.500000 
744 1 0.337743 0.264854 0.500000 
745 1 0.357718 0.265806 0.500000 
746 1 0.377721 0.266727 0.500000 
747 1 0.397686 0.267708 0.500000 
748 1 0.417642 0.268652 0.500000 
749 1 0.437599 0.269592 0.500000 
750 1 0.448003 0.252952 0.500000 
751 1 0.457532 0.270533 0.500000 
752 1 0.467932 0.253835 0.500000 
753 1 0.477476 0.271383 0.500000 
754 1 0.487861 0.254654 0.500000 
755 1 0.507771 0.255468 0.500000 
756 1 0.527694 0.256189 0.500000 
757 1 0.547598 0.256871 0.500000 
758 1 0.567519 0.257483 0.500000 
759 1 0.587451 0.258041 0.500000 
760 1 0.607399 0.258529 0.500000 
761 1 0.627342 0.258986 0.500000 
762 1 0.647277 0.259338 0.500000 
763 1 0.667215 0.259688 0.500000 
764 1 0.687178 0.259988 0.500000 
765 1 0.707156 0.260284 0.500000 
766 1 0.727144 0.260563 0.500000 
767 1 0.747113 0.260845 0.500000 
768 1 0.767079 0.261069 0.500000 
769 1 0.787069 0.261298 0.500000 
770 1 0.807072 0.261476 0.500000 
771 1 0.827061 0.261673 0.500000 
772 1 0.847057 0.261834 0.500000 
773 1 0.867080 0.262001 0.500000 
774 1 0.887101 0.262104 0.500000 
775 1 0.907119 0.262197 0.500000 
776 1 0.927137 0.262289 0.500000 
777 1 0.947159 0.262387 0.500000 
778 1 0.967200 0.262468 0.500000 
779 1 0.987245 0.262544 0.500000 
780 1 0.015779 0.285121 0.500000 
781 1 0.035792 0.285753 0.500000 
782 1 0.055810 0.286400 0.500000 
783 1 0.075849 0.287101 0.500000 
784 1 0.095910 0.287826 0.500000 
785 1 0.106455 0.271486 0.500000 
786 1 0.115985 0.288574 0.500000 
787 1 0.126548 0.272244 0.500000 
788 1 0.136065 0.289341 0.500000 
789 1 0.146632 0.273008 0.500000 
790 1 0.156156 0.290146 0.500000 
791 1 0.166711 0.273812 0.500000 
792 1 0.176244 0.290981 0.500000 
793 1 0.186808 0.274670 0.500000 
794 1 0.206892 0.275551 0.500000 
795 1 0.226965 0.276466 0.500000 
796 1 0.247043 0.277396 0.500000 
797 1 0.267138 0.278322 0.500000 
798 1 0.287214 0.279327 0.500000 
799 1 0.307261 0.280299 0.500000 
800 1 0.327285 0.281280 0.500000 
801 1 0.347297 0.282303 0.500000 
802 1 0.367318 0.283237 0.500000 
803 1 0.387286 0.284253 0.500000 
804 1 0.407248 0.285236 0.500000 
805 1 0.427206 0.286207 0.500000 
806 1 0.447130 0.287184 0.500000 
807 1 0.467067 0.288082 0.500000 
808 1 0.497381 0.272233 0.500000 
809 1 0.486974 0.288976 0.500000 
810 1 0.506913 0.289778 0.500000 
811 1 0.517301 0.272979 0.500000 
812 1 0.526819 0.290522 0.500000 
813 1 0.537224 0.273713 0.500000 
814 1 0.546748 0.291202 0.500000 
815 1 0.557151 0.274352 0.500000 
816 1 0.577078 0.274921 0.500000 
817 1 0.597025 0.275437 0.500000 
818 1 0.616990 0.275906 0.500000 
819 1 0.636959 0.276302 0.500000 
820 1 0.656913 0.276637 0.500000 
821 1 0.676889 0.276951 0.500000 
822 1 0.696859 0.277235 0.500000 
823 1 0.716834 0.277512 0.500000 
824 1 0.736806 0.277776 0.500000 
825 1 0.756798 0.278031 0.500000 
826 1 0.776781 0.278241 0.500000 
827 1 0.796782 0.278434 0.500000 
828 1 0.816795 0.278620 0.500000 
829 1 0.836797 0.278795 0.500000 
830 1 0.856805 0.278934 0.500000 
831 1 0.876847 0.279068 0.500000 
832 1 0.896881 0.279158 0.500000 
833 1 0.916912 0.279242 0.500000 
834 1 0.936936 0.279332 0.500000 
835 1 0.956982 0.279417 0.500000 
836 1 0.977036 0.279488 0.500000 
837 1 0.997089 0.279555 0.500000 
838 1 0.005284 0.301547 0.500000 
839 1 0.025288 0.302175 0.500000 
840 1 0.045299 0.302815 0.500000 
841 1 0.065313 0.303468 0.500000 
842 1 0.085373 0.304199 0.500000 
843 1 0.105441 0.304922 0.500000 
844 1 0.125510 0.305690 0.500000 
845 1 0.145580 0.306470 0.500000 
846 1 0.165665 0.307291 0.500000 
847 1 0.196321 0.291863 0.500000 
848 1 0.185740 0.308169 0.500000 
849 1 0.216398 0.292771 0.500000 
850 1 0.205805 0.309075 0.500000 
851 1 0.236489 0.293718 0.500000 
852 1 0.225885 0.310004 0.500000 
853 1 0.256580 0.294659 0.500000 
854 1 0.245991 0.310961 0.500000 
855 1 0.276644 0.295651 0.500000 
856 1 0.266068 0.311966 0.500000 
857 1 0.296734 0.296665 0.500000 
858 1 0.316786 0.297673 0.500000 
859 1 0.336801 0.298706 0.500000 
860 1 0.356854 0.299698 0.500000 
861 1 0.376840 0.300753 0.500000 
862 1 0.396821 0.301786 0.500000 
863 1 0.416776 0.302793 0.500000 
864 1 0.436706 0.303805 0.500000 
865 1 0.456634 0.304769 0.500000 
866 1 0.476534 0.305719 0.500000 
867 1 0.496480 0.306532 0.500000 
868 1 0.516411 0.307357 0.500000 
869 1 0.536334 0.308047 0.500000 
870 1 0.566680 0.291805 0.500000 
871 1 0.556266 0.308686 0.500000 
872 1 0.586630 0.292323 0.500000 
873 1 0.576232 0.309225 0.500000 
874 1 0.606593 0.292794 0.500000 
875 1 0.596203 0.309709 0.500000 
876 1 0.626573 0.293222 0.500000 
877 1 0.616194 0.310128 0.500000 
878 1 0.646549 0.293600 0.500000 
879 1 0.636184 0.310535 0.500000 
880 1 0.666542 0.293897 0.500000 
881 1 0.686552 0.294201 0.500000 