ITEM: TIMESTEP
4100
ITEM: NUMBER OF ATOMS
2850
ITEM: BOX BOUNDS ss ss pp
-28.0536 28.3253 
-28.9988 28.9984 
-0.5 0.5 
ITEM: ATOMS id type xs ys zs
1 1 0.012661 0.000000 0.500000 
2 1 0.032688 0.000597 0.500000 
3 1 0.052715 0.001202 0.500000 
4 1 0.072742 0.001814 0.500000 
5 1 0.092767 0.002433 0.500000 
6 1 0.112794 0.003060 0.500000 
7 1 0.132817 0.003697 0.500000 
8 1 0.152841 0.004338 0.500000 
9 1 0.172861 0.004988 0.500000 
10 1 0.192879 0.005643 0.500000 
11 1 0.212895 0.006305 0.500000 
12 1 0.232906 0.006973 0.500000 
13 1 0.252912 0.007645 0.500000 
14 1 0.272914 0.008319 0.500000 
15 1 0.292911 0.008997 0.500000 
16 1 0.312901 0.009676 0.500000 
17 1 0.332885 0.010356 0.500000 
18 1 0.352861 0.011033 0.500000 
19 1 0.372830 0.011707 0.500000 
20 1 0.392791 0.012376 0.500000 
21 1 0.022340 0.017073 0.500000 
22 1 0.042369 0.017677 0.500000 
23 1 0.062397 0.018289 0.500000 
24 1 0.082426 0.018911 0.500000 
25 1 0.102455 0.019539 0.500000 
26 1 0.122484 0.020177 0.500000 
27 1 0.142511 0.020822 0.500000 
28 1 0.162536 0.021475 0.500000 
29 1 0.182559 0.022136 0.500000 
30 1 0.202579 0.022803 0.500000 
31 1 0.222596 0.023475 0.500000 
32 1 0.242610 0.024155 0.500000 
33 1 0.262618 0.024839 0.500000 
34 1 0.282622 0.025527 0.500000 
35 1 0.302619 0.026217 0.500000 
36 1 0.322610 0.026908 0.500000 
37 1 0.342593 0.027600 0.500000 
38 1 0.362570 0.028289 0.500000 
39 1 0.382537 0.028974 0.500000 
40 1 0.402497 0.029655 0.500000 
41 1 0.412744 0.013039 0.500000 
42 1 0.422448 0.030326 0.500000 
43 1 0.432688 0.013694 0.500000 
44 1 0.442390 0.030989 0.500000 
45 1 0.452624 0.014337 0.500000 
46 1 0.462324 0.031639 0.500000 
47 1 0.472553 0.014968 0.500000 
48 1 0.482250 0.032276 0.500000 
49 1 0.492474 0.015584 0.500000 
50 1 0.512388 0.016184 0.500000 
51 1 0.532295 0.016766 0.500000 
52 1 0.552198 0.017330 0.500000 
53 1 0.572095 0.017873 0.500000 
54 1 0.591989 0.018396 0.500000 
55 1 0.611880 0.018896 0.500000 
56 1 0.631769 0.019373 0.500000 
57 1 0.651657 0.019829 0.500000 
58 1 0.671546 0.020261 0.500000 
59 1 0.691436 0.020670 0.500000 
60 1 0.711328 0.021058 0.500000 
61 1 0.731222 0.021423 0.500000 
62 1 0.751120 0.021768 0.500000 
63 1 0.771021 0.022094 0.500000 
64 1 0.790927 0.022399 0.500000 
65 1 0.810837 0.022687 0.500000 
66 1 0.830751 0.022958 0.500000 
67 1 0.850671 0.023211 0.500000 
68 1 0.870595 0.023449 0.500000 
69 1 0.890525 0.023674 0.500000 
70 1 0.910459 0.023884 0.500000 
71 1 0.930398 0.024080 0.500000 
72 1 0.950341 0.024267 0.500000 
73 1 0.970290 0.024443 0.500000 
74 1 0.990243 0.024606 0.500000 
75 1 0.011983 0.033545 0.500000 
76 1 0.032014 0.034148 0.500000 
77 1 0.021650 0.050615 0.500000 
78 1 0.052044 0.034760 0.500000 
79 1 0.041680 0.051227 0.500000 
80 1 0.072075 0.035381 0.500000 
81 1 0.061715 0.051847 0.500000 
82 1 0.092107 0.036012 0.500000 
83 1 0.081752 0.052481 0.500000 
84 1 0.112138 0.036650 0.500000 
85 1 0.132168 0.037297 0.500000 
86 1 0.152197 0.037952 0.500000 
87 1 0.172226 0.038617 0.500000 
88 1 0.192251 0.039288 0.500000 
89 1 0.212274 0.039967 0.500000 
90 1 0.232293 0.040654 0.500000 
91 1 0.252309 0.041345 0.500000 
92 1 0.272318 0.042042 0.500000 
93 1 0.292324 0.042743 0.500000 
94 1 0.312323 0.043447 0.500000 
95 1 0.332314 0.044150 0.500000 
96 1 0.352297 0.044856 0.500000 
97 1 0.372273 0.045557 0.500000 
98 1 0.392240 0.046254 0.500000 
99 1 0.412198 0.046944 0.500000 
100 1 0.432147 0.047626 0.500000 
101 1 0.452087 0.048297 0.500000 
102 1 0.472018 0.048954 0.500000 
103 1 0.502167 0.032896 0.500000 
104 1 0.491940 0.049595 0.500000 
105 1 0.522078 0.033498 0.500000 
106 1 0.511855 0.050220 0.500000 
107 1 0.541983 0.034081 0.500000 
108 1 0.531762 0.050823 0.500000 
109 1 0.561882 0.034643 0.500000 
110 1 0.551663 0.051406 0.500000 
111 1 0.581777 0.035184 0.500000 
112 1 0.571560 0.051966 0.500000 
113 1 0.601668 0.035702 0.500000 
114 1 0.591452 0.052503 0.500000 
115 1 0.621558 0.036195 0.500000 
116 1 0.641446 0.036666 0.500000 
117 1 0.661334 0.037110 0.500000 
118 1 0.681223 0.037533 0.500000 
119 1 0.701115 0.037931 0.500000 
120 1 0.721007 0.038307 0.500000 
121 1 0.740905 0.038660 0.500000 
122 1 0.760806 0.038993 0.500000 
123 1 0.780711 0.039305 0.500000 
124 1 0.800620 0.039597 0.500000 
125 1 0.820536 0.039873 0.500000 
126 1 0.840456 0.040130 0.500000 
127 1 0.860382 0.040369 0.500000 
128 1 0.880312 0.040595 0.500000 
129 1 0.900248 0.040807 0.500000 
130 1 0.920188 0.041005 0.500000 
131 1 0.940134 0.041192 0.500000 
132 1 0.960084 0.041368 0.500000 
133 1 0.980040 0.041531 0.500000 
134 1 1.000000 0.041686 0.500000 
135 1 0.011275 0.067077 0.500000 
136 1 0.031308 0.067688 0.500000 
137 1 0.051342 0.068307 0.500000 
138 1 0.071376 0.068936 0.500000 
139 1 0.091422 0.069589 0.500000 
140 1 0.101791 0.053129 0.500000 
141 1 0.111467 0.070249 0.500000 
142 1 0.121830 0.053781 0.500000 
143 1 0.131505 0.070922 0.500000 
144 1 0.141862 0.054445 0.500000 
145 1 0.151541 0.071598 0.500000 
146 1 0.161892 0.055114 0.500000 
147 1 0.171573 0.072284 0.500000 
148 1 0.181918 0.055791 0.500000 
149 1 0.201943 0.056477 0.500000 
150 1 0.221966 0.057170 0.500000 
151 1 0.241984 0.057871 0.500000 
152 1 0.261996 0.058572 0.500000 
153 1 0.282002 0.059287 0.500000 
154 1 0.302003 0.060003 0.500000 
155 1 0.321999 0.060720 0.500000 
156 1 0.341984 0.061436 0.500000 
157 1 0.361961 0.062149 0.500000 
158 1 0.381929 0.062865 0.500000 
159 1 0.401886 0.063571 0.500000 
160 1 0.421836 0.064269 0.500000 
161 1 0.441777 0.064953 0.500000 
162 1 0.461710 0.065630 0.500000 
163 1 0.481637 0.066287 0.500000 
164 1 0.501558 0.066930 0.500000 
165 1 0.521470 0.067550 0.500000 
166 1 0.541376 0.068153 0.500000 
167 1 0.561276 0.068725 0.500000 
168 1 0.581175 0.069280 0.500000 
169 1 0.601072 0.069805 0.500000 
170 1 0.611341 0.053013 0.500000 
171 1 0.620965 0.070307 0.500000 
172 1 0.631230 0.053499 0.500000 
173 1 0.640861 0.070777 0.500000 
174 1 0.651117 0.053960 0.500000 
175 1 0.671006 0.054396 0.500000 
176 1 0.660754 0.071226 0.500000 
177 1 0.690897 0.054806 0.500000 
178 1 0.680650 0.071649 0.500000 
179 1 0.710789 0.055192 0.500000 
180 1 0.700551 0.072048 0.500000 
181 1 0.730685 0.055554 0.500000 
182 1 0.720451 0.072419 0.500000 
183 1 0.750586 0.055894 0.500000 
184 1 0.770490 0.056213 0.500000 
185 1 0.790400 0.056511 0.500000 
186 1 0.810316 0.056789 0.500000 
187 1 0.830238 0.057049 0.500000 
188 1 0.850164 0.057294 0.500000 
189 1 0.870095 0.057522 0.500000 
190 1 0.890032 0.057734 0.500000 
191 1 0.909975 0.057934 0.500000 
192 1 0.929922 0.058120 0.500000 
193 1 0.949875 0.058294 0.500000 
194 1 0.969833 0.058458 0.500000 
195 1 0.989796 0.058613 0.500000 
196 1 0.020924 0.084144 0.500000 
197 1 0.040959 0.084763 0.500000 
198 1 0.060994 0.085390 0.500000 
199 1 0.081043 0.086040 0.500000 
200 1 0.101089 0.086706 0.500000 
201 1 0.121131 0.087383 0.500000 
202 1 0.141172 0.088067 0.500000 
203 1 0.161209 0.088761 0.500000 
204 1 0.191601 0.072972 0.500000 
205 1 0.181245 0.089458 0.500000 
206 1 0.211629 0.073676 0.500000 
207 1 0.201275 0.090165 0.500000 
208 1 0.221304 0.090884 0.500000 
209 1 0.231652 0.074384 0.500000 
210 1 0.241325 0.091607 0.500000 
211 1 0.251667 0.075096 0.500000 
212 1 0.261335 0.092338 0.500000 
213 1 0.271673 0.075819 0.500000 
214 1 0.291676 0.076544 0.500000 
215 1 0.311675 0.077272 0.500000 
216 1 0.331665 0.078005 0.500000 
217 1 0.351645 0.078732 0.500000 
218 1 0.371614 0.079459 0.500000 
219 1 0.391576 0.080188 0.500000 
220 1 0.411529 0.080901 0.500000 
221 1 0.431474 0.081605 0.500000 
222 1 0.451407 0.082296 0.500000 
223 1 0.471335 0.082972 0.500000 
224 1 0.491259 0.083631 0.500000 
225 1 0.511179 0.084272 0.500000 
226 1 0.531086 0.084890 0.500000 
227 1 0.550990 0.085486 0.500000 
228 1 0.570891 0.086052 0.500000 
229 1 0.590794 0.086590 0.500000 
230 1 0.610695 0.087112 0.500000 
231 1 0.630595 0.087593 0.500000 
232 1 0.650493 0.088056 0.500000 
233 1 0.670392 0.088490 0.500000 
234 1 0.690298 0.088896 0.500000 
235 1 0.710207 0.089282 0.500000 
236 1 0.730117 0.089638 0.500000 
237 1 0.740354 0.072765 0.500000 
238 1 0.750031 0.089970 0.500000 
239 1 0.760265 0.073090 0.500000 
240 1 0.769950 0.090283 0.500000 
241 1 0.780182 0.073397 0.500000 
242 1 0.789873 0.090574 0.500000 
243 1 0.800102 0.073682 0.500000 
244 1 0.809804 0.090846 0.500000 
245 1 0.820027 0.073948 0.500000 
246 1 0.829735 0.091105 0.500000 
247 1 0.839954 0.074199 0.500000 
248 1 0.849670 0.091340 0.500000 
249 1 0.859886 0.074430 0.500000 
250 1 0.869609 0.091558 0.500000 
251 1 0.879822 0.074646 0.500000 
252 1 0.889554 0.091765 0.500000 
253 1 0.899767 0.074850 0.500000 
254 1 0.909505 0.091962 0.500000 
255 1 0.919717 0.075041 0.500000 
256 1 0.929457 0.092146 0.500000 
257 1 0.939668 0.075221 0.500000 
258 1 0.949407 0.092323 0.500000 
259 1 0.959621 0.075390 0.500000 
260 1 0.979588 0.075542 0.500000 
261 1 0.999557 0.075685 0.500000 
262 1 0.010532 0.100598 0.500000 
263 1 0.030566 0.101214 0.500000 
264 1 0.050602 0.101839 0.500000 
265 1 0.070640 0.102476 0.500000 
266 1 0.090697 0.103151 0.500000 
267 1 0.110747 0.103834 0.500000 
268 1 0.130792 0.104522 0.500000 
269 1 0.150834 0.105223 0.500000 
270 1 0.170876 0.105929 0.500000 
271 1 0.190913 0.106643 0.500000 
272 1 0.210943 0.107369 0.500000 
273 1 0.230970 0.108102 0.500000 
274 1 0.250989 0.108843 0.500000 
275 1 0.271000 0.109591 0.500000 
276 1 0.281342 0.093077 0.500000 
277 1 0.291008 0.110342 0.500000 
278 1 0.301342 0.093812 0.500000 
279 1 0.311003 0.111097 0.500000 
280 1 0.321334 0.094555 0.500000 
281 1 0.330988 0.111856 0.500000 
282 1 0.341321 0.095303 0.500000 
283 1 0.361294 0.096044 0.500000 
284 1 0.381257 0.096787 0.500000 
285 1 0.401216 0.097520 0.500000 
286 1 0.421165 0.098242 0.500000 
287 1 0.441103 0.098954 0.500000 
288 1 0.461032 0.099648 0.500000 
289 1 0.480960 0.100324 0.500000 
290 1 0.500880 0.100984 0.500000 
291 1 0.520793 0.101621 0.500000 
292 1 0.540702 0.102235 0.500000 
293 1 0.560610 0.102823 0.500000 
294 1 0.580513 0.103376 0.500000 
295 1 0.600416 0.103907 0.500000 
296 1 0.620322 0.104411 0.500000 
297 1 0.640225 0.104881 0.500000 
298 1 0.660131 0.105328 0.500000 
299 1 0.680041 0.105745 0.500000 
300 1 0.699953 0.106139 0.500000 
301 1 0.719869 0.106510 0.500000 
302 1 0.739788 0.106851 0.500000 
303 1 0.759709 0.107172 0.500000 
304 1 0.779637 0.107469 0.500000 
305 1 0.799571 0.107744 0.500000 
306 1 0.819508 0.108008 0.500000 
307 1 0.839450 0.108250 0.500000 
308 1 0.859391 0.108473 0.500000 
309 1 0.879337 0.108682 0.500000 
310 1 0.899286 0.108881 0.500000 
311 1 0.919243 0.109069 0.500000 
312 1 0.939201 0.109250 0.500000 
313 1 0.969375 0.092475 0.500000 
314 1 0.959160 0.109410 0.500000 
315 1 0.989349 0.092617 0.500000 
316 1 0.979136 0.109550 0.500000 
317 1 0.999117 0.109681 0.500000 
318 1 0.020165 0.117663 0.500000 
319 1 0.040201 0.118287 0.500000 
320 1 0.060239 0.118920 0.500000 
321 1 0.080290 0.119583 0.500000 
322 1 0.100344 0.120271 0.500000 
323 1 0.120395 0.120969 0.500000 
324 1 0.140441 0.121672 0.500000 
325 1 0.160487 0.122384 0.500000 
326 1 0.180530 0.123105 0.500000 
327 1 0.200567 0.123839 0.500000 
328 1 0.220598 0.124582 0.500000 
329 1 0.240623 0.125331 0.500000 
330 1 0.260640 0.126089 0.500000 
331 1 0.280653 0.126851 0.500000 
332 1 0.300655 0.127621 0.500000 
333 1 0.320648 0.128398 0.500000 
334 1 0.340634 0.129172 0.500000 
335 1 0.350969 0.112618 0.500000 
336 1 0.360614 0.129948 0.500000 
337 1 0.370941 0.113374 0.500000 
338 1 0.380584 0.130718 0.500000 
339 1 0.390904 0.114126 0.500000 
340 1 0.400541 0.131482 0.500000 
341 1 0.410855 0.114867 0.500000 
342 1 0.420487 0.132231 0.500000 
343 1 0.430798 0.115598 0.500000 
344 1 0.450734 0.116317 0.500000 
345 1 0.470661 0.117010 0.500000 
346 1 0.490581 0.117691 0.500000 
347 1 0.510496 0.118347 0.500000 
348 1 0.530407 0.118978 0.500000 
349 1 0.550316 0.119583 0.500000 
350 1 0.570227 0.120159 0.500000 
351 1 0.590135 0.120704 0.500000 
352 1 0.610042 0.121219 0.500000 
353 1 0.629949 0.121707 0.500000 
354 1 0.649859 0.122164 0.500000 
355 1 0.669776 0.122594 0.500000 
356 1 0.689691 0.122999 0.500000 
357 1 0.709609 0.123380 0.500000 
358 1 0.729532 0.123731 0.500000 
359 1 0.749458 0.124060 0.500000 
360 1 0.769392 0.124363 0.500000 
361 1 0.789330 0.124645 0.500000 
362 1 0.809271 0.124911 0.500000 
363 1 0.829217 0.125160 0.500000 
364 1 0.849162 0.125388 0.500000 
365 1 0.869114 0.125599 0.500000 
366 1 0.889068 0.125804 0.500000 
367 1 0.909025 0.125992 0.500000 
368 1 0.928983 0.126176 0.500000 
369 1 0.948940 0.126349 0.500000 
370 1 0.968919 0.126487 0.500000 
371 1 0.988905 0.126616 0.500000 
372 1 0.009754 0.134110 0.500000 
373 1 0.029790 0.134729 0.500000 
374 1 0.019367 0.151171 0.500000 
375 1 0.049825 0.135360 0.500000 
376 1 0.039403 0.151799 0.500000 
377 1 0.069865 0.136003 0.500000 
378 1 0.089926 0.136698 0.500000 
379 1 0.109982 0.137401 0.500000 
380 1 0.130036 0.138111 0.500000 
381 1 0.150089 0.138829 0.500000 
382 1 0.170137 0.139555 0.500000 
383 1 0.190178 0.140295 0.500000 
384 1 0.210216 0.141045 0.500000 
385 1 0.230249 0.141806 0.500000 
386 1 0.250274 0.142573 0.500000 
387 1 0.270293 0.143345 0.500000 
388 1 0.290301 0.144130 0.500000 
389 1 0.310302 0.144918 0.500000 
390 1 0.330297 0.145711 0.500000 
391 1 0.350279 0.146503 0.500000 
392 1 0.370254 0.147293 0.500000 
393 1 0.390217 0.148080 0.500000 
394 1 0.410170 0.148853 0.500000 
395 1 0.440426 0.132970 0.500000 
396 1 0.430112 0.149613 0.500000 
397 1 0.460358 0.133690 0.500000 
398 1 0.450045 0.150358 0.500000 
399 1 0.480279 0.134388 0.500000 
400 1 0.469975 0.151079 0.500000 
401 1 0.500198 0.135064 0.500000 
402 1 0.489897 0.151776 0.500000 
403 1 0.520115 0.135718 0.500000 
404 1 0.540025 0.136341 0.500000 
405 1 0.559934 0.136933 0.500000 
406 1 0.579847 0.137499 0.500000 
407 1 0.599758 0.138030 0.500000 
408 1 0.619667 0.138530 0.500000 
409 1 0.639582 0.139001 0.500000 
410 1 0.659504 0.139441 0.500000 
411 1 0.679423 0.139861 0.500000 
412 1 0.699344 0.140250 0.500000 
413 1 0.719271 0.140611 0.500000 
414 1 0.739202 0.140945 0.500000 
415 1 0.759139 0.141256 0.500000 
416 1 0.779081 0.141546 0.500000 
417 1 0.799027 0.141815 0.500000 
418 1 0.818977 0.142069 0.500000 
419 1 0.838930 0.142305 0.500000 
420 1 0.858884 0.142519 0.500000 
421 1 0.878841 0.142725 0.500000 
422 1 0.898803 0.142918 0.500000 
423 1 0.918765 0.143102 0.500000 
424 1 0.938730 0.143278 0.500000 
425 1 0.958701 0.143428 0.500000 
426 1 0.978689 0.143555 0.500000 
427 1 0.998682 0.143674 0.500000 
428 1 0.008938 0.167610 0.500000 
429 1 0.028972 0.168234 0.500000 
430 1 0.049008 0.168868 0.500000 
431 1 0.059442 0.152437 0.500000 
432 1 0.069047 0.169517 0.500000 
433 1 0.079499 0.153112 0.500000 
434 1 0.089113 0.170228 0.500000 
435 1 0.099557 0.153822 0.500000 
436 1 0.109177 0.170949 0.500000 
437 1 0.119615 0.154536 0.500000 
438 1 0.139672 0.155260 0.500000 
439 1 0.129236 0.171678 0.500000 
440 1 0.159726 0.155992 0.500000 
441 1 0.179775 0.156739 0.500000 
442 1 0.199819 0.157495 0.500000 
443 1 0.219856 0.158263 0.500000 
444 1 0.239886 0.159040 0.500000 
445 1 0.259915 0.159823 0.500000 
446 1 0.279932 0.160621 0.500000 
447 1 0.299943 0.161422 0.500000 
448 1 0.319944 0.162230 0.500000 
449 1 0.339938 0.163042 0.500000 
450 1 0.359919 0.163852 0.500000 
451 1 0.379886 0.164658 0.500000 
452 1 0.399846 0.165456 0.500000 
453 1 0.419795 0.166242 0.500000 
454 1 0.439732 0.167014 0.500000 
455 1 0.459662 0.167757 0.500000 
456 1 0.479589 0.168480 0.500000 
457 1 0.499507 0.169177 0.500000 
458 1 0.509813 0.152448 0.500000 
459 1 0.519421 0.169843 0.500000 
460 1 0.529728 0.153095 0.500000 
461 1 0.539339 0.170474 0.500000 
462 1 0.549641 0.153708 0.500000 
463 1 0.559255 0.171078 0.500000 
464 1 0.569552 0.154288 0.500000 
465 1 0.579170 0.171643 0.500000 
466 1 0.589467 0.154838 0.500000 
467 1 0.609382 0.155355 0.500000 
468 1 0.629298 0.155838 0.500000 
469 1 0.649219 0.156289 0.500000 
470 1 0.669142 0.156720 0.500000 
471 1 0.689071 0.157119 0.500000 
472 1 0.709004 0.157487 0.500000 
473 1 0.728940 0.157833 0.500000 
474 1 0.748878 0.158149 0.500000 
475 1 0.768823 0.158447 0.500000 
476 1 0.788772 0.158721 0.500000 
477 1 0.808727 0.158977 0.500000 
478 1 0.828686 0.159219 0.500000 
479 1 0.848648 0.159441 0.500000 
480 1 0.868609 0.159650 0.500000 
481 1 0.888572 0.159845 0.500000 
482 1 0.908539 0.160027 0.500000 
483 1 0.928509 0.160205 0.500000 
484 1 0.948477 0.160370 0.500000 
485 1 0.968470 0.160496 0.500000 
486 1 0.988467 0.160611 0.500000 
487 1 0.018532 0.184668 0.500000 
488 1 0.038566 0.185299 0.500000 
489 1 0.058602 0.185942 0.500000 
490 1 0.078661 0.186626 0.500000 
491 1 0.098725 0.187348 0.500000 
492 1 0.118790 0.188086 0.500000 
493 1 0.138852 0.188827 0.500000 
494 1 0.149295 0.172415 0.500000 
495 1 0.158910 0.189581 0.500000 
496 1 0.169351 0.173166 0.500000 
497 1 0.178968 0.190347 0.500000 
498 1 0.189402 0.173929 0.500000 
499 1 0.199021 0.191127 0.500000 
500 1 0.209447 0.174704 0.500000 
501 1 0.219069 0.191924 0.500000 
502 1 0.229486 0.175494 0.500000 
503 1 0.249520 0.176282 0.500000 
504 1 0.269547 0.177093 0.500000 
505 1 0.289568 0.177909 0.500000 
506 1 0.309578 0.178731 0.500000 
507 1 0.329577 0.179561 0.500000 
508 1 0.349568 0.180389 0.500000 
509 1 0.369545 0.181220 0.500000 
510 1 0.389511 0.182040 0.500000 
511 1 0.409465 0.182852 0.500000 
512 1 0.429408 0.183648 0.500000 
513 1 0.449344 0.184425 0.500000 
514 1 0.469270 0.185171 0.500000 
515 1 0.489192 0.185894 0.500000 
516 1 0.509110 0.186587 0.500000 
517 1 0.529027 0.187238 0.500000 
518 1 0.548943 0.187859 0.500000 
519 1 0.568863 0.188446 0.500000 
520 1 0.588785 0.188992 0.500000 
521 1 0.599088 0.172175 0.500000 
522 1 0.608707 0.189509 0.500000 
523 1 0.619008 0.172675 0.500000 
524 1 0.628634 0.189988 0.500000 
525 1 0.638934 0.173139 0.500000 
526 1 0.648566 0.190436 0.500000 
527 1 0.658860 0.173579 0.500000 
528 1 0.668505 0.190856 0.500000 
529 1 0.678791 0.173986 0.500000 
530 1 0.688445 0.191242 0.500000 
531 1 0.698727 0.174365 0.500000 
532 1 0.718666 0.174717 0.500000 
533 1 0.738611 0.175046 0.500000 
534 1 0.758561 0.175346 0.500000 
535 1 0.778514 0.175627 0.500000 
536 1 0.798473 0.175887 0.500000 
537 1 0.818436 0.176130 0.500000 
538 1 0.838403 0.176359 0.500000 
539 1 0.858371 0.176572 0.500000 
540 1 0.878342 0.176772 0.500000 
541 1 0.898314 0.176955 0.500000 
542 1 0.918287 0.177129 0.500000 
543 1 0.938266 0.177298 0.500000 
544 1 0.958249 0.177440 0.500000 
545 1 0.978251 0.177553 0.500000 
546 1 0.998258 0.177659 0.500000 
547 1 0.008083 0.201103 0.500000 
548 1 0.028113 0.201727 0.500000 
549 1 0.048147 0.202367 0.500000 
550 1 0.068185 0.203017 0.500000 
551 1 0.088255 0.203742 0.500000 
552 1 0.108320 0.204475 0.500000 
553 1 0.128390 0.205224 0.500000 
554 1 0.148454 0.205984 0.500000 
555 1 0.168517 0.206751 0.500000 
556 1 0.188576 0.207537 0.500000 
557 1 0.208629 0.208337 0.500000 
558 1 0.239116 0.192728 0.500000 
559 1 0.228683 0.209149 0.500000 
560 1 0.259148 0.193545 0.500000 
561 1 0.248730 0.209981 0.500000 
562 1 0.279178 0.194374 0.500000 
563 1 0.268769 0.210818 0.500000 
564 1 0.299199 0.195212 0.500000 
565 1 0.288796 0.211669 0.500000 
566 1 0.319206 0.196060 0.500000 
567 1 0.339203 0.196907 0.500000 
568 1 0.359187 0.197760 0.500000 
569 1 0.379165 0.198605 0.500000 
570 1 0.399127 0.199445 0.500000 
571 1 0.419075 0.200267 0.500000 
572 1 0.439015 0.201070 0.500000 
573 1 0.458947 0.201850 0.500000 
574 1 0.478872 0.202600 0.500000 
575 1 0.498793 0.203318 0.500000 
576 1 0.518711 0.204000 0.500000 
577 1 0.538627 0.204640 0.500000 
578 1 0.558548 0.205243 0.500000 
579 1 0.578473 0.205810 0.500000 
580 1 0.598399 0.206342 0.500000 
581 1 0.618329 0.206836 0.500000 
582 1 0.638265 0.207294 0.500000 
583 1 0.658204 0.207724 0.500000 
584 1 0.678150 0.208121 0.500000 
585 1 0.708389 0.191604 0.500000 
586 1 0.698100 0.208491 0.500000 
587 1 0.728338 0.191939 0.500000 
588 1 0.718057 0.208833 0.500000 
589 1 0.748298 0.192247 0.500000 
590 1 0.738019 0.209148 0.500000 
591 1 0.768257 0.192535 0.500000 
592 1 0.757985 0.209443 0.500000 
593 1 0.788217 0.192798 0.500000 
594 1 0.777954 0.209715 0.500000 
595 1 0.808184 0.193045 0.500000 
596 1 0.797924 0.209962 0.500000 
597 1 0.828156 0.193276 0.500000 
598 1 0.817900 0.210194 0.500000 
599 1 0.848129 0.193494 0.500000 
600 1 0.837878 0.210414 0.500000 
601 1 0.868104 0.193696 0.500000 
602 1 0.857859 0.210620 0.500000 
603 1 0.888083 0.193884 0.500000 
604 1 0.877847 0.210809 0.500000 
605 1 0.908062 0.194057 0.500000 
606 1 0.897835 0.210985 0.500000 
607 1 0.928041 0.194224 0.500000 
608 1 0.917821 0.211152 0.500000 
609 1 0.948021 0.194385 0.500000 
610 1 0.937810 0.211313 0.500000 
611 1 0.957807 0.211443 0.500000 
612 1 0.968031 0.194496 0.500000 
613 1 0.977825 0.211543 0.500000 
614 1 0.988043 0.194599 0.500000 
615 1 0.997847 0.211634 0.500000 
616 1 0.017654 0.218157 0.500000 
617 1 0.037684 0.218790 0.500000 
618 1 0.057718 0.219436 0.500000 
619 1 0.077778 0.220130 0.500000 
620 1 0.097843 0.220862 0.500000 
621 1 0.117908 0.221607 0.500000 
622 1 0.137977 0.222369 0.500000 
623 1 0.158047 0.223141 0.500000 
624 1 0.178112 0.223931 0.500000 
625 1 0.198175 0.224736 0.500000 
626 1 0.218236 0.225554 0.500000 
627 1 0.238290 0.226393 0.500000 
628 1 0.258341 0.227245 0.500000 
629 1 0.278378 0.228107 0.500000 
630 1 0.298404 0.228985 0.500000 
631 1 0.308812 0.212533 0.500000 
632 1 0.318422 0.229869 0.500000 
633 1 0.328821 0.213402 0.500000 
634 1 0.338426 0.230771 0.500000 
635 1 0.348815 0.214279 0.500000 
636 1 0.358422 0.231667 0.500000 
637 1 0.368799 0.215147 0.500000 
638 1 0.388770 0.216015 0.500000 
639 1 0.408727 0.216868 0.500000 
640 1 0.428675 0.217699 0.500000 
641 1 0.448612 0.218510 0.500000 
642 1 0.468542 0.219292 0.500000 
643 1 0.488465 0.220039 0.500000 
644 1 0.508383 0.220750 0.500000 
645 1 0.528304 0.221418 0.500000 
646 1 0.548226 0.222041 0.500000 
647 1 0.568150 0.222626 0.500000 
648 1 0.588078 0.223175 0.500000 
649 1 0.608014 0.223684 0.500000 
650 1 0.627955 0.224155 0.500000 
651 1 0.647900 0.224596 0.500000 
652 1 0.667848 0.225001 0.500000 
653 1 0.687803 0.225378 0.500000 
654 1 0.707765 0.225727 0.500000 
655 1 0.727735 0.226050 0.500000 
656 1 0.747707 0.226352 0.500000 
657 1 0.767683 0.226631 0.500000 
658 1 0.787661 0.226883 0.500000 
659 1 0.807642 0.227117 0.500000 
660 1 0.827626 0.227334 0.500000 
661 1 0.847615 0.227542 0.500000 
662 1 0.867607 0.227733 0.500000 
663 1 0.887601 0.227913 0.500000 
664 1 0.907594 0.228081 0.500000 
665 1 0.927587 0.228240 0.500000 
666 1 0.947580 0.228392 0.500000 
667 1 0.967605 0.228489 0.500000 
668 1 0.987634 0.228577 0.500000 
669 1 0.007189 0.234587 0.500000 
670 1 0.027214 0.235215 0.500000 
671 1 0.047243 0.235854 0.500000 
672 1 0.067275 0.236508 0.500000 
673 1 0.087346 0.237243 0.500000 
674 1 0.107412 0.237986 0.500000 
675 1 0.127480 0.238744 0.500000 
676 1 0.147552 0.239517 0.500000 
677 1 0.167624 0.240308 0.500000 
678 1 0.187696 0.241116 0.500000 
679 1 0.207766 0.241942 0.500000 
680 1 0.227826 0.242787 0.500000 
681 1 0.247883 0.243645 0.500000 
682 1 0.267934 0.244523 0.500000 
683 1 0.287972 0.245414 0.500000 
684 1 0.308001 0.246315 0.500000 
685 1 0.328014 0.247235 0.500000 
686 1 0.348021 0.248157 0.500000 
687 1 0.378402 0.232560 0.500000 
688 1 0.368017 0.249080 0.500000 
689 1 0.398369 0.233448 0.500000 
690 1 0.387993 0.249997 0.500000 
691 1 0.418322 0.234311 0.500000 
692 1 0.407957 0.250899 0.500000 
693 1 0.438264 0.235155 0.500000 
694 1 0.427905 0.251781 0.500000 
695 1 0.458199 0.235969 0.500000 
696 1 0.478127 0.236751 0.500000 
697 1 0.498047 0.237494 0.500000 
698 1 0.517969 0.238186 0.500000 
699 1 0.537895 0.238836 0.500000 
700 1 0.557822 0.239443 0.500000 
701 1 0.577753 0.240007 0.500000 
702 1 0.597689 0.240531 0.500000 
703 1 0.617632 0.241018 0.500000 
704 1 0.637582 0.241468 0.500000 
705 1 0.657537 0.241885 0.500000 
706 1 0.677499 0.242269 0.500000 
707 1 0.697468 0.242624 0.500000 
708 1 0.717442 0.242954 0.500000 
709 1 0.737417 0.243261 0.500000 
710 1 0.757398 0.243546 0.500000 
711 1 0.777386 0.243803 0.500000 
712 1 0.797378 0.244040 0.500000 
713 1 0.817371 0.244262 0.500000 
714 1 0.837365 0.244468 0.500000 
715 1 0.857361 0.244661 0.500000 
716 1 0.877360 0.244840 0.500000 
717 1 0.897363 0.245009 0.500000 
718 1 0.917367 0.245168 0.500000 
719 1 0.937371 0.245318 0.500000 
720 1 0.957383 0.245436 0.500000 
721 1 0.977417 0.245522 0.500000 
722 1 0.997455 0.245600 0.500000 
723 1 0.016737 0.251640 0.500000 
724 1 0.006256 0.268068 0.500000 
725 1 0.036760 0.252274 0.500000 
726 1 0.026272 0.268696 0.500000 
727 1 0.056787 0.252921 0.500000 
728 1 0.046292 0.269335 0.500000 
729 1 0.076841 0.253616 0.500000 
730 1 0.066319 0.269991 0.500000 
731 1 0.096905 0.254360 0.500000 
732 1 0.086386 0.270728 0.500000 
733 1 0.116976 0.255113 0.500000 
734 1 0.137048 0.255885 0.500000 
735 1 0.157121 0.256674 0.500000 
736 1 0.177193 0.257481 0.500000 
737 1 0.197268 0.258309 0.500000 
738 1 0.217336 0.259162 0.500000 
739 1 0.237405 0.260027 0.500000 
740 1 0.257467 0.260912 0.500000 
741 1 0.277519 0.261819 0.500000 
742 1 0.297561 0.262736 0.500000 
743 1 0.317587 0.263675 0.500000 
744 1 0.337604 0.264620 0.500000 
745 1 0.357611 0.265571 0.500000 
746 1 0.377601 0.266522 0.500000 
747 1 0.397574 0.267457 0.500000 
748 1 0.417532 0.268380 0.500000 
749 1 0.437478 0.269271 0.500000 
750 1 0.447845 0.252630 0.500000 
751 1 0.457411 0.270127 0.500000 
752 1 0.467777 0.253445 0.500000 
753 1 0.477336 0.270943 0.500000 
754 1 0.487702 0.254227 0.500000 
755 1 0.507629 0.254949 0.500000 
756 1 0.527553 0.255625 0.500000 
757 1 0.547483 0.256256 0.500000 
758 1 0.567419 0.256838 0.500000 
759 1 0.587359 0.257380 0.500000 
760 1 0.607304 0.257880 0.500000 
761 1 0.627257 0.258340 0.500000 
762 1 0.647216 0.258769 0.500000 
763 1 0.667185 0.259162 0.500000 
764 1 0.687161 0.259523 0.500000 
765 1 0.707143 0.259859 0.500000 
766 1 0.727128 0.260174 0.500000 
767 1 0.747113 0.260463 0.500000 
768 1 0.767107 0.260725 0.500000 
769 1 0.787104 0.260965 0.500000 
770 1 0.807101 0.261190 0.500000 
771 1 0.827103 0.261396 0.500000 
772 1 0.847108 0.261590 0.500000 
773 1 0.867117 0.261770 0.500000 
774 1 0.887127 0.261937 0.500000 
775 1 0.907138 0.262093 0.500000 
776 1 0.927151 0.262246 0.500000 
777 1 0.947159 0.262387 0.500000 
778 1 0.967200 0.262468 0.500000 
779 1 0.987245 0.262544 0.500000 
780 1 0.015779 0.285121 0.500000 
781 1 0.035792 0.285753 0.500000 
782 1 0.055810 0.286400 0.500000 
783 1 0.075859 0.287096 0.500000 
784 1 0.095918 0.287841 0.500000 
785 1 0.106453 0.271477 0.500000 
786 1 0.115982 0.288601 0.500000 
787 1 0.126525 0.272245 0.500000 
788 1 0.136053 0.289379 0.500000 
789 1 0.146600 0.273031 0.500000 
790 1 0.156133 0.290179 0.500000 
791 1 0.166675 0.273836 0.500000 
792 1 0.176210 0.291001 0.500000 
793 1 0.186751 0.274662 0.500000 
794 1 0.206823 0.275516 0.500000 
795 1 0.226899 0.276386 0.500000 
796 1 0.246970 0.277280 0.500000 
797 1 0.267034 0.278196 0.500000 
798 1 0.287091 0.279129 0.500000 
799 1 0.307134 0.280086 0.500000 
800 1 0.327166 0.281052 0.500000 
801 1 0.347185 0.282029 0.500000 
802 1 0.367188 0.283014 0.500000 
803 1 0.387177 0.283988 0.500000 
804 1 0.407146 0.284952 0.500000 
805 1 0.427098 0.285888 0.500000 
806 1 0.447034 0.286791 0.500000 
807 1 0.466964 0.287649 0.500000 
808 1 0.497267 0.271701 0.500000 
809 1 0.486895 0.288446 0.500000 
810 1 0.506826 0.289186 0.500000 
811 1 0.517197 0.272408 0.500000 
812 1 0.526760 0.289873 0.500000 
813 1 0.537127 0.273064 0.500000 
814 1 0.546700 0.290499 0.500000 
815 1 0.557065 0.273668 0.500000 
816 1 0.577010 0.274231 0.500000 
817 1 0.596963 0.274745 0.500000 
818 1 0.616924 0.275216 0.500000 
819 1 0.636888 0.275655 0.500000 
820 1 0.656864 0.276053 0.500000 
821 1 0.676848 0.276424 0.500000 
822 1 0.696835 0.276768 0.500000 
823 1 0.716827 0.277085 0.500000 
824 1 0.736824 0.277382 0.500000 
825 1 0.756826 0.277649 0.500000 
826 1 0.776833 0.277894 0.500000 
827 1 0.796839 0.278120 0.500000 
828 1 0.816848 0.278328 0.500000 
829 1 0.836861 0.278519 0.500000 
830 1 0.856877 0.278700 0.500000 
831 1 0.876893 0.278867 0.500000 
832 1 0.896911 0.279025 0.500000 
833 1 0.916931 0.279172 0.500000 
834 1 0.936956 0.279311 0.500000 
835 1 0.956982 0.279417 0.500000 
836 1 0.977036 0.279488 0.500000 
837 1 0.997089 0.279555 0.500000 
838 1 0.005284 0.301547 0.500000 
839 1 0.025288 0.302175 0.500000 
840 1 0.045299 0.302815 0.500000 
841 1 0.065313 0.303468 0.500000 
842 1 0.085369 0.304202 0.500000 
843 1 0.105429 0.304956 0.500000 
844 1 0.125496 0.305723 0.500000 
845 1 0.145570 0.306513 0.500000 
846 1 0.165648 0.307333 0.500000 
847 1 0.196288 0.291855 0.500000 
848 1 0.185725 0.308177 0.500000 
849 1 0.216369 0.292726 0.500000 
850 1 0.205810 0.309048 0.500000 
851 1 0.236448 0.293624 0.500000 
852 1 0.225893 0.309948 0.500000 
853 1 0.256524 0.294549 0.500000 
854 1 0.245976 0.310874 0.500000 
855 1 0.276592 0.295493 0.500000 
856 1 0.266058 0.311828 0.500000 
857 1 0.296650 0.296465 0.500000 
858 1 0.316700 0.297451 0.500000 
859 1 0.336733 0.298453 0.500000 
860 1 0.356751 0.299470 0.500000 
861 1 0.376754 0.300484 0.500000 
862 1 0.396733 0.301492 0.500000 
863 1 0.416695 0.302476 0.500000 
864 1 0.436639 0.303431 0.500000 
865 1 0.456573 0.304337 0.500000 
866 1 0.476505 0.305182 0.500000 
867 1 0.496436 0.305961 0.500000 
868 1 0.516370 0.306674 0.500000 
869 1 0.536314 0.307331 0.500000 
870 1 0.566649 0.291077 0.500000 
871 1 0.556268 0.307925 0.500000 
872 1 0.586608 0.291611 0.500000 
873 1 0.576236 0.308474 0.500000 
874 1 0.606577 0.292094 0.500000 
875 1 0.596212 0.308970 0.500000 
876 1 0.626550 0.292542 0.500000 
877 1 0.616196 0.309429 0.500000 
878 1 0.646533 0.292949 0.500000 
879 1 0.636188 0.309848 0.500000 
880 1 0.666524 0.293327 0.500000 
881 1 0.686520 0.293678 0.500000 