ITEM: TIMESTEP
3700
ITEM: NUMBER OF ATOMS
2850
ITEM: BOX BOUNDS ss ss pp
-28.0536 28.3253 
-28.9988 28.9984 
-0.5 0.5 
ITEM: ATOMS id type xs ys zs
1 1 0.012661 0.000000 0.500000 
2 1 0.032688 0.000597 0.500000 
3 1 0.052715 0.001202 0.500000 
4 1 0.072742 0.001814 0.500000 
5 1 0.092767 0.002433 0.500000 
6 1 0.112794 0.003060 0.500000 
7 1 0.132817 0.003697 0.500000 
8 1 0.152841 0.004338 0.500000 
9 1 0.172861 0.004988 0.500000 
10 1 0.192879 0.005643 0.500000 
11 1 0.212895 0.006305 0.500000 
12 1 0.232906 0.006973 0.500000 
13 1 0.252912 0.007645 0.500000 
14 1 0.272914 0.008319 0.500000 
15 1 0.292911 0.008997 0.500000 
16 1 0.312901 0.009676 0.500000 
17 1 0.332885 0.010356 0.500000 
18 1 0.352861 0.011033 0.500000 
19 1 0.372830 0.011707 0.500000 
20 1 0.392791 0.012376 0.500000 
21 1 0.022340 0.017073 0.500000 
22 1 0.042369 0.017677 0.500000 
23 1 0.062397 0.018289 0.500000 
24 1 0.082426 0.018911 0.500000 
25 1 0.102455 0.019539 0.500000 
26 1 0.122484 0.020177 0.500000 
27 1 0.142511 0.020822 0.500000 
28 1 0.162536 0.021475 0.500000 
29 1 0.182559 0.022136 0.500000 
30 1 0.202579 0.022803 0.500000 
31 1 0.222596 0.023475 0.500000 
32 1 0.242610 0.024155 0.500000 
33 1 0.262618 0.024839 0.500000 
34 1 0.282622 0.025527 0.500000 
35 1 0.302619 0.026217 0.500000 
36 1 0.322610 0.026908 0.500000 
37 1 0.342593 0.027600 0.500000 
38 1 0.362570 0.028289 0.500000 
39 1 0.382537 0.028974 0.500000 
40 1 0.402497 0.029655 0.500000 
41 1 0.412744 0.013039 0.500000 
42 1 0.422448 0.030326 0.500000 
43 1 0.432688 0.013694 0.500000 
44 1 0.442390 0.030989 0.500000 
45 1 0.452624 0.014337 0.500000 
46 1 0.462324 0.031639 0.500000 
47 1 0.472553 0.014968 0.500000 
48 1 0.482250 0.032276 0.500000 
49 1 0.492474 0.015584 0.500000 
50 1 0.512388 0.016184 0.500000 
51 1 0.532295 0.016766 0.500000 
52 1 0.552198 0.017330 0.500000 
53 1 0.572095 0.017873 0.500000 
54 1 0.591989 0.018396 0.500000 
55 1 0.611880 0.018896 0.500000 
56 1 0.631769 0.019373 0.500000 
57 1 0.651657 0.019829 0.500000 
58 1 0.671546 0.020261 0.500000 
59 1 0.691436 0.020670 0.500000 
60 1 0.711328 0.021058 0.500000 
61 1 0.731222 0.021423 0.500000 
62 1 0.751120 0.021768 0.500000 
63 1 0.771021 0.022094 0.500000 
64 1 0.790927 0.022399 0.500000 
65 1 0.810837 0.022687 0.500000 
66 1 0.830751 0.022958 0.500000 
67 1 0.850671 0.023211 0.500000 
68 1 0.870595 0.023449 0.500000 
69 1 0.890525 0.023674 0.500000 
70 1 0.910459 0.023884 0.500000 
71 1 0.930398 0.024080 0.500000 
72 1 0.950341 0.024267 0.500000 
73 1 0.970290 0.024443 0.500000 
74 1 0.990243 0.024606 0.500000 
75 1 0.011983 0.033545 0.500000 
76 1 0.032014 0.034148 0.500000 
77 1 0.021650 0.050615 0.500000 
78 1 0.052044 0.034760 0.500000 
79 1 0.041680 0.051227 0.500000 
80 1 0.072075 0.035381 0.500000 
81 1 0.061715 0.051847 0.500000 
82 1 0.092107 0.036012 0.500000 
83 1 0.081756 0.052482 0.500000 
84 1 0.112138 0.036650 0.500000 
85 1 0.132168 0.037297 0.500000 
86 1 0.152197 0.037952 0.500000 
87 1 0.172226 0.038617 0.500000 
88 1 0.192251 0.039288 0.500000 
89 1 0.212274 0.039967 0.500000 
90 1 0.232293 0.040654 0.500000 
91 1 0.252309 0.041345 0.500000 
92 1 0.272318 0.042042 0.500000 
93 1 0.292324 0.042743 0.500000 
94 1 0.312323 0.043447 0.500000 
95 1 0.332314 0.044150 0.500000 
96 1 0.352297 0.044856 0.500000 
97 1 0.372273 0.045557 0.500000 
98 1 0.392240 0.046254 0.500000 
99 1 0.412198 0.046944 0.500000 
100 1 0.432147 0.047626 0.500000 
101 1 0.452087 0.048297 0.500000 
102 1 0.472018 0.048954 0.500000 
103 1 0.502167 0.032896 0.500000 
104 1 0.491940 0.049595 0.500000 
105 1 0.522078 0.033498 0.500000 
106 1 0.511855 0.050220 0.500000 
107 1 0.541983 0.034081 0.500000 
108 1 0.531762 0.050823 0.500000 
109 1 0.561882 0.034643 0.500000 
110 1 0.551663 0.051406 0.500000 
111 1 0.581777 0.035184 0.500000 
112 1 0.571560 0.051966 0.500000 
113 1 0.601668 0.035702 0.500000 
114 1 0.591452 0.052503 0.500000 
115 1 0.621558 0.036195 0.500000 
116 1 0.641446 0.036666 0.500000 
117 1 0.661334 0.037110 0.500000 
118 1 0.681223 0.037533 0.500000 
119 1 0.701115 0.037931 0.500000 
120 1 0.721007 0.038307 0.500000 
121 1 0.740905 0.038660 0.500000 
122 1 0.760806 0.038993 0.500000 
123 1 0.780711 0.039305 0.500000 
124 1 0.800620 0.039597 0.500000 
125 1 0.820536 0.039873 0.500000 
126 1 0.840456 0.040130 0.500000 
127 1 0.860382 0.040369 0.500000 
128 1 0.880312 0.040595 0.500000 
129 1 0.900248 0.040807 0.500000 
130 1 0.920188 0.041005 0.500000 
131 1 0.940134 0.041192 0.500000 
132 1 0.960084 0.041368 0.500000 
133 1 0.980040 0.041531 0.500000 
134 1 1.000000 0.041686 0.500000 
135 1 0.011275 0.067077 0.500000 
136 1 0.031308 0.067688 0.500000 
137 1 0.051342 0.068307 0.500000 
138 1 0.071376 0.068936 0.500000 
139 1 0.091427 0.069585 0.500000 
140 1 0.101795 0.053122 0.500000 
141 1 0.111466 0.070245 0.500000 
142 1 0.121828 0.053778 0.500000 
143 1 0.131506 0.070912 0.500000 
144 1 0.141861 0.054437 0.500000 
145 1 0.151543 0.071583 0.500000 
146 1 0.161896 0.055107 0.500000 
147 1 0.171572 0.072277 0.500000 
148 1 0.181922 0.055791 0.500000 
149 1 0.201945 0.056471 0.500000 
150 1 0.221968 0.057165 0.500000 
151 1 0.241982 0.057867 0.500000 
152 1 0.261995 0.058569 0.500000 
153 1 0.282003 0.059279 0.500000 
154 1 0.302003 0.059995 0.500000 
155 1 0.321995 0.060712 0.500000 
156 1 0.341979 0.061430 0.500000 
157 1 0.361955 0.062140 0.500000 
158 1 0.381924 0.062858 0.500000 
159 1 0.401881 0.063559 0.500000 
160 1 0.421832 0.064257 0.500000 
161 1 0.441774 0.064949 0.500000 
162 1 0.461708 0.065627 0.500000 
163 1 0.481633 0.066284 0.500000 
164 1 0.501552 0.066925 0.500000 
165 1 0.521465 0.067549 0.500000 
166 1 0.541370 0.068147 0.500000 
167 1 0.561266 0.068727 0.500000 
168 1 0.581165 0.069274 0.500000 
169 1 0.601062 0.069802 0.500000 
170 1 0.611341 0.053013 0.500000 
171 1 0.620956 0.070299 0.500000 
172 1 0.631230 0.053499 0.500000 
173 1 0.640852 0.070772 0.500000 
174 1 0.651117 0.053960 0.500000 
175 1 0.671006 0.054396 0.500000 
176 1 0.660749 0.071221 0.500000 
177 1 0.690897 0.054806 0.500000 
178 1 0.680646 0.071646 0.500000 
179 1 0.710789 0.055192 0.500000 
180 1 0.700547 0.072044 0.500000 
181 1 0.730685 0.055554 0.500000 
182 1 0.720448 0.072419 0.500000 
183 1 0.750586 0.055894 0.500000 
184 1 0.770490 0.056213 0.500000 
185 1 0.790400 0.056511 0.500000 
186 1 0.810316 0.056789 0.500000 
187 1 0.830238 0.057049 0.500000 
188 1 0.850164 0.057294 0.500000 
189 1 0.870095 0.057522 0.500000 
190 1 0.890032 0.057734 0.500000 
191 1 0.909975 0.057934 0.500000 
192 1 0.929922 0.058120 0.500000 
193 1 0.949875 0.058294 0.500000 
194 1 0.969833 0.058458 0.500000 
195 1 0.989796 0.058613 0.500000 
196 1 0.020924 0.084144 0.500000 
197 1 0.040959 0.084763 0.500000 
198 1 0.060994 0.085390 0.500000 
199 1 0.081044 0.086035 0.500000 
200 1 0.101092 0.086703 0.500000 
201 1 0.121137 0.087375 0.500000 
202 1 0.141181 0.088050 0.500000 
203 1 0.161212 0.088751 0.500000 
204 1 0.191603 0.072968 0.500000 
205 1 0.181244 0.089448 0.500000 
206 1 0.211631 0.073663 0.500000 
207 1 0.201281 0.090152 0.500000 
208 1 0.221306 0.090873 0.500000 
209 1 0.231648 0.074374 0.500000 
210 1 0.241324 0.091587 0.500000 
211 1 0.251665 0.075084 0.500000 
212 1 0.261336 0.092317 0.500000 
213 1 0.271674 0.075806 0.500000 
214 1 0.291674 0.076533 0.500000 
215 1 0.311672 0.077261 0.500000 
216 1 0.331661 0.077994 0.500000 
217 1 0.351638 0.078719 0.500000 
218 1 0.371608 0.079446 0.500000 
219 1 0.391574 0.080168 0.500000 
220 1 0.411527 0.080878 0.500000 
221 1 0.431470 0.081589 0.500000 
222 1 0.451401 0.082287 0.500000 
223 1 0.471331 0.082962 0.500000 
224 1 0.491252 0.083622 0.500000 
225 1 0.511165 0.084269 0.500000 
226 1 0.531075 0.084883 0.500000 
227 1 0.550980 0.085481 0.500000 
228 1 0.570882 0.086043 0.500000 
229 1 0.590782 0.086583 0.500000 
230 1 0.610680 0.087099 0.500000 
231 1 0.630574 0.087581 0.500000 
232 1 0.650472 0.088041 0.500000 
233 1 0.670377 0.088479 0.500000 
234 1 0.690287 0.088890 0.500000 
235 1 0.710196 0.089279 0.500000 
236 1 0.730106 0.089639 0.500000 
237 1 0.740352 0.072767 0.500000 
238 1 0.750022 0.089970 0.500000 
239 1 0.760263 0.073092 0.500000 
240 1 0.769942 0.090283 0.500000 
241 1 0.780179 0.073394 0.500000 
242 1 0.789865 0.090575 0.500000 
243 1 0.800099 0.073681 0.500000 
244 1 0.809797 0.090848 0.500000 
245 1 0.820024 0.073951 0.500000 
246 1 0.829727 0.091106 0.500000 
247 1 0.839952 0.074198 0.500000 
248 1 0.849662 0.091338 0.500000 
249 1 0.859885 0.074429 0.500000 
250 1 0.869605 0.091558 0.500000 
251 1 0.879824 0.074643 0.500000 
252 1 0.889552 0.091767 0.500000 
253 1 0.899764 0.074849 0.500000 
254 1 0.909501 0.091963 0.500000 
255 1 0.919711 0.075045 0.500000 
256 1 0.929457 0.092147 0.500000 
257 1 0.939666 0.075220 0.500000 
258 1 0.949407 0.092323 0.500000 
259 1 0.959621 0.075390 0.500000 
260 1 0.979588 0.075542 0.500000 
261 1 0.999557 0.075685 0.500000 
262 1 0.010532 0.100598 0.500000 
263 1 0.030566 0.101214 0.500000 
264 1 0.050602 0.101839 0.500000 
265 1 0.070640 0.102476 0.500000 
266 1 0.090695 0.103146 0.500000 
267 1 0.110745 0.103825 0.500000 
268 1 0.130798 0.104506 0.500000 
269 1 0.150836 0.105212 0.500000 
270 1 0.170875 0.105919 0.500000 
271 1 0.190910 0.106628 0.500000 
272 1 0.210942 0.107355 0.500000 
273 1 0.230971 0.108083 0.500000 
274 1 0.250988 0.108817 0.500000 
275 1 0.271000 0.109566 0.500000 
276 1 0.281343 0.093059 0.500000 
277 1 0.291003 0.110319 0.500000 
278 1 0.301344 0.093796 0.500000 
279 1 0.310995 0.111076 0.500000 
280 1 0.321334 0.094542 0.500000 
281 1 0.330980 0.111838 0.500000 
282 1 0.341313 0.095290 0.500000 
283 1 0.361284 0.096026 0.500000 
284 1 0.381250 0.096759 0.500000 
285 1 0.401207 0.097490 0.500000 
286 1 0.421155 0.098217 0.500000 
287 1 0.441092 0.098937 0.500000 
288 1 0.461018 0.099629 0.500000 
289 1 0.480938 0.100310 0.500000 
290 1 0.500856 0.100978 0.500000 
291 1 0.520774 0.101616 0.500000 
292 1 0.540681 0.102224 0.500000 
293 1 0.560586 0.102809 0.500000 
294 1 0.580491 0.103365 0.500000 
295 1 0.600394 0.103892 0.500000 
296 1 0.620298 0.104395 0.500000 
297 1 0.640201 0.104863 0.500000 
298 1 0.660107 0.105309 0.500000 
299 1 0.680019 0.105732 0.500000 
300 1 0.699936 0.106131 0.500000 
301 1 0.719854 0.106507 0.500000 
302 1 0.739774 0.106850 0.500000 
303 1 0.759698 0.107168 0.500000 
304 1 0.779625 0.107472 0.500000 
305 1 0.799561 0.107747 0.500000 
306 1 0.819498 0.108012 0.500000 
307 1 0.839436 0.108251 0.500000 
308 1 0.859381 0.108472 0.500000 
309 1 0.879333 0.108684 0.500000 
310 1 0.899285 0.108883 0.500000 
311 1 0.919241 0.109069 0.500000 
312 1 0.939198 0.109253 0.500000 
313 1 0.969375 0.092475 0.500000 
314 1 0.959160 0.109410 0.500000 
315 1 0.989349 0.092617 0.500000 
316 1 0.979136 0.109550 0.500000 
317 1 0.999117 0.109681 0.500000 
318 1 0.020165 0.117663 0.500000 
319 1 0.040201 0.118287 0.500000 
320 1 0.060239 0.118920 0.500000 
321 1 0.080289 0.119578 0.500000 
322 1 0.100345 0.120264 0.500000 
323 1 0.120400 0.120949 0.500000 
324 1 0.140445 0.121660 0.500000 
325 1 0.160491 0.122372 0.500000 
326 1 0.180532 0.123094 0.500000 
327 1 0.200567 0.123823 0.500000 
328 1 0.220604 0.124561 0.500000 
329 1 0.240629 0.125308 0.500000 
330 1 0.260643 0.126061 0.500000 
331 1 0.280651 0.126826 0.500000 
332 1 0.300651 0.127598 0.500000 
333 1 0.320643 0.128373 0.500000 
334 1 0.340625 0.129145 0.500000 
335 1 0.350960 0.112596 0.500000 
336 1 0.360602 0.129912 0.500000 
337 1 0.370929 0.113340 0.500000 
338 1 0.380563 0.130675 0.500000 
339 1 0.390888 0.114089 0.500000 
340 1 0.400514 0.131441 0.500000 
341 1 0.410839 0.114836 0.500000 
342 1 0.420463 0.132199 0.500000 
343 1 0.430780 0.115571 0.500000 
344 1 0.450715 0.116292 0.500000 
345 1 0.470639 0.116993 0.500000 
346 1 0.490558 0.117677 0.500000 
347 1 0.510476 0.118335 0.500000 
348 1 0.530386 0.118968 0.500000 
349 1 0.550291 0.119568 0.500000 
350 1 0.570197 0.120141 0.500000 
351 1 0.590106 0.120689 0.500000 
352 1 0.610013 0.121201 0.500000 
353 1 0.629921 0.121690 0.500000 
354 1 0.649830 0.122144 0.500000 
355 1 0.669744 0.122577 0.500000 
356 1 0.689663 0.122984 0.500000 
357 1 0.709585 0.123370 0.500000 
358 1 0.729510 0.123726 0.500000 
359 1 0.749439 0.124051 0.500000 
360 1 0.769372 0.124362 0.500000 
361 1 0.789309 0.124647 0.500000 
362 1 0.809252 0.124915 0.500000 
363 1 0.829201 0.125164 0.500000 
364 1 0.849146 0.125387 0.500000 
365 1 0.869098 0.125601 0.500000 
366 1 0.889055 0.125808 0.500000 
367 1 0.909014 0.125993 0.500000 
368 1 0.928979 0.126179 0.500000 
369 1 0.948940 0.126349 0.500000 
370 1 0.968919 0.126487 0.500000 
371 1 0.988905 0.126616 0.500000 
372 1 0.009754 0.134110 0.500000 
373 1 0.029790 0.134729 0.500000 
374 1 0.019367 0.151171 0.500000 
375 1 0.049825 0.135360 0.500000 
376 1 0.039403 0.151799 0.500000 
377 1 0.069865 0.136003 0.500000 
378 1 0.089926 0.136687 0.500000 
379 1 0.109986 0.137383 0.500000 
380 1 0.130038 0.138094 0.500000 
381 1 0.150091 0.138812 0.500000 
382 1 0.170137 0.139540 0.500000 
383 1 0.190177 0.140278 0.500000 
384 1 0.210219 0.141020 0.500000 
385 1 0.230253 0.141781 0.500000 
386 1 0.250275 0.142547 0.500000 
387 1 0.270286 0.143316 0.500000 
388 1 0.290291 0.144103 0.500000 
389 1 0.310292 0.144890 0.500000 
390 1 0.330285 0.145681 0.500000 
391 1 0.350265 0.146466 0.500000 
392 1 0.370236 0.147253 0.500000 
393 1 0.390191 0.148036 0.500000 
394 1 0.410141 0.148809 0.500000 
395 1 0.440399 0.132936 0.500000 
396 1 0.430084 0.149576 0.500000 
397 1 0.460327 0.133664 0.500000 
398 1 0.450015 0.150322 0.500000 
399 1 0.480249 0.134370 0.500000 
400 1 0.469942 0.151052 0.500000 
401 1 0.500166 0.135045 0.500000 
402 1 0.489859 0.151754 0.500000 
403 1 0.520078 0.135701 0.500000 
404 1 0.539991 0.136323 0.500000 
405 1 0.559902 0.136915 0.500000 
406 1 0.579811 0.137476 0.500000 
407 1 0.599725 0.138006 0.500000 
408 1 0.619637 0.138509 0.500000 
409 1 0.639551 0.138980 0.500000 
410 1 0.659467 0.139423 0.500000 
411 1 0.679387 0.139840 0.500000 
412 1 0.699311 0.140233 0.500000 
413 1 0.719241 0.140600 0.500000 
414 1 0.739175 0.140940 0.500000 
415 1 0.759111 0.141248 0.500000 
416 1 0.779056 0.141548 0.500000 
417 1 0.799001 0.141818 0.500000 
418 1 0.818950 0.142069 0.500000 
419 1 0.838905 0.142305 0.500000 
420 1 0.858860 0.142517 0.500000 
421 1 0.878821 0.142725 0.500000 
422 1 0.898788 0.142921 0.500000 
423 1 0.918757 0.143102 0.500000 
424 1 0.938727 0.143280 0.500000 
425 1 0.958701 0.143428 0.500000 
426 1 0.978689 0.143555 0.500000 
427 1 0.998682 0.143674 0.500000 
428 1 0.008938 0.167610 0.500000 
429 1 0.028972 0.168234 0.500000 
430 1 0.049008 0.168868 0.500000 
431 1 0.059442 0.152437 0.500000 
432 1 0.069047 0.169517 0.500000 
433 1 0.079499 0.153105 0.500000 
434 1 0.089113 0.170214 0.500000 
435 1 0.099558 0.153805 0.500000 
436 1 0.109175 0.170932 0.500000 
437 1 0.119614 0.154517 0.500000 
438 1 0.139671 0.155240 0.500000 
439 1 0.129233 0.171658 0.500000 
440 1 0.159724 0.155974 0.500000 
441 1 0.179770 0.156719 0.500000 
442 1 0.199816 0.157469 0.500000 
443 1 0.219853 0.158235 0.500000 
444 1 0.239886 0.159011 0.500000 
445 1 0.259911 0.159793 0.500000 
446 1 0.279920 0.160592 0.500000 
447 1 0.299929 0.161391 0.500000 
448 1 0.319931 0.162197 0.500000 
449 1 0.339919 0.163005 0.500000 
450 1 0.359897 0.163810 0.500000 
451 1 0.379862 0.164616 0.500000 
452 1 0.399818 0.165409 0.500000 
453 1 0.419760 0.166197 0.500000 
454 1 0.439696 0.166968 0.500000 
455 1 0.459627 0.167718 0.500000 
456 1 0.479550 0.168453 0.500000 
457 1 0.499466 0.169149 0.500000 
458 1 0.509770 0.152425 0.500000 
459 1 0.519382 0.169810 0.500000 
460 1 0.529686 0.153071 0.500000 
461 1 0.539294 0.170448 0.500000 
462 1 0.549597 0.153682 0.500000 
463 1 0.559208 0.171049 0.500000 
464 1 0.569511 0.154266 0.500000 
465 1 0.579123 0.171613 0.500000 
466 1 0.589426 0.154810 0.500000 
467 1 0.609342 0.155325 0.500000 
468 1 0.629260 0.155813 0.500000 
469 1 0.649180 0.156265 0.500000 
470 1 0.669104 0.156698 0.500000 
471 1 0.689027 0.157098 0.500000 
472 1 0.708962 0.157471 0.500000 
473 1 0.728902 0.157825 0.500000 
474 1 0.748849 0.158146 0.500000 
475 1 0.768795 0.158444 0.500000 
476 1 0.788749 0.158725 0.500000 
477 1 0.808701 0.158979 0.500000 
478 1 0.828656 0.159217 0.500000 
479 1 0.848617 0.159436 0.500000 
480 1 0.868582 0.159642 0.500000 
481 1 0.888553 0.159842 0.500000 
482 1 0.908524 0.160028 0.500000 
483 1 0.928499 0.160205 0.500000 
484 1 0.948477 0.160370 0.500000 
485 1 0.968470 0.160496 0.500000 
486 1 0.988467 0.160611 0.500000 
487 1 0.018532 0.184668 0.500000 
488 1 0.038566 0.185299 0.500000 
489 1 0.058602 0.185942 0.500000 
490 1 0.078659 0.186620 0.500000 
491 1 0.098718 0.187332 0.500000 
492 1 0.118781 0.188065 0.500000 
493 1 0.138842 0.188804 0.500000 
494 1 0.149294 0.172398 0.500000 
495 1 0.158904 0.189564 0.500000 
496 1 0.169347 0.173148 0.500000 
497 1 0.178963 0.190321 0.500000 
498 1 0.189399 0.173903 0.500000 
499 1 0.199013 0.191099 0.500000 
500 1 0.209445 0.174675 0.500000 
501 1 0.219061 0.191891 0.500000 
502 1 0.229485 0.175461 0.500000 
503 1 0.249517 0.176253 0.500000 
504 1 0.269535 0.177066 0.500000 
505 1 0.289551 0.177877 0.500000 
506 1 0.309561 0.178694 0.500000 
507 1 0.329557 0.179524 0.500000 
508 1 0.349543 0.180346 0.500000 
509 1 0.369512 0.181173 0.500000 
510 1 0.389477 0.181987 0.500000 
511 1 0.409429 0.182803 0.500000 
512 1 0.429367 0.183601 0.500000 
513 1 0.449302 0.184372 0.500000 
514 1 0.469228 0.185131 0.500000 
515 1 0.489150 0.185861 0.500000 
516 1 0.509069 0.186549 0.500000 
517 1 0.528983 0.187205 0.500000 
518 1 0.548901 0.187826 0.500000 
519 1 0.568816 0.188416 0.500000 
520 1 0.588731 0.188965 0.500000 
521 1 0.599038 0.172144 0.500000 
522 1 0.608651 0.189480 0.500000 
523 1 0.618957 0.172646 0.500000 
524 1 0.628579 0.189959 0.500000 
525 1 0.638882 0.173112 0.500000 
526 1 0.648507 0.190409 0.500000 
527 1 0.658806 0.173550 0.500000 
528 1 0.668443 0.190828 0.500000 
529 1 0.678739 0.173968 0.500000 
530 1 0.688392 0.191219 0.500000 
531 1 0.698679 0.174342 0.500000 
532 1 0.718625 0.174704 0.500000 
533 1 0.738577 0.175038 0.500000 
534 1 0.758530 0.175344 0.500000 
535 1 0.778488 0.175627 0.500000 
536 1 0.798449 0.175891 0.500000 
537 1 0.818409 0.176133 0.500000 
538 1 0.838372 0.176355 0.500000 
539 1 0.858342 0.176564 0.500000 
540 1 0.878317 0.176763 0.500000 
541 1 0.898294 0.176952 0.500000 
542 1 0.918275 0.177131 0.500000 
543 1 0.938261 0.177297 0.500000 
544 1 0.958249 0.177440 0.500000 
545 1 0.978251 0.177553 0.500000 
546 1 0.998258 0.177659 0.500000 
547 1 0.008083 0.201103 0.500000 
548 1 0.028113 0.201727 0.500000 
549 1 0.048147 0.202367 0.500000 
550 1 0.068185 0.203017 0.500000 
551 1 0.088253 0.203730 0.500000 
552 1 0.108316 0.204458 0.500000 
553 1 0.128380 0.205203 0.500000 
554 1 0.148443 0.205959 0.500000 
555 1 0.168509 0.206725 0.500000 
556 1 0.188564 0.207508 0.500000 
557 1 0.208618 0.208303 0.500000 
558 1 0.239105 0.192696 0.500000 
559 1 0.228671 0.209116 0.500000 
560 1 0.259132 0.193521 0.500000 
561 1 0.248711 0.209954 0.500000 
562 1 0.279159 0.194346 0.500000 
563 1 0.268745 0.210789 0.500000 
564 1 0.299172 0.195178 0.500000 
565 1 0.288770 0.211642 0.500000 
566 1 0.319177 0.196019 0.500000 
567 1 0.339174 0.196860 0.500000 
568 1 0.359157 0.197710 0.500000 
569 1 0.379129 0.198549 0.500000 
570 1 0.399089 0.199387 0.500000 
571 1 0.419043 0.200215 0.500000 
572 1 0.438989 0.201014 0.500000 
573 1 0.458914 0.201801 0.500000 
574 1 0.478833 0.202556 0.500000 
575 1 0.498755 0.203275 0.500000 
576 1 0.518671 0.203961 0.500000 
577 1 0.538586 0.204600 0.500000 
578 1 0.558503 0.205213 0.500000 
579 1 0.578423 0.205786 0.500000 
580 1 0.598348 0.206316 0.500000 
581 1 0.618274 0.206807 0.500000 
582 1 0.638205 0.207269 0.500000 
583 1 0.658144 0.207695 0.500000 
584 1 0.678095 0.208091 0.500000 
585 1 0.708339 0.191582 0.500000 
586 1 0.698047 0.208467 0.500000 
587 1 0.728295 0.191925 0.500000 
588 1 0.718003 0.208813 0.500000 
589 1 0.748254 0.192240 0.500000 
590 1 0.737970 0.209132 0.500000 
591 1 0.768214 0.192530 0.500000 
592 1 0.757938 0.209432 0.500000 
593 1 0.788183 0.192797 0.500000 
594 1 0.777909 0.209703 0.500000 
595 1 0.808154 0.193048 0.500000 
596 1 0.797885 0.209959 0.500000 
597 1 0.828125 0.193276 0.500000 
598 1 0.817864 0.210197 0.500000 
599 1 0.848100 0.193484 0.500000 
600 1 0.837847 0.210409 0.500000 
601 1 0.868080 0.193687 0.500000 
602 1 0.857831 0.210609 0.500000 
603 1 0.888063 0.193876 0.500000 
604 1 0.877823 0.210799 0.500000 
605 1 0.908048 0.194056 0.500000 
606 1 0.897813 0.210983 0.500000 
607 1 0.928036 0.194227 0.500000 
608 1 0.917803 0.211155 0.500000 
609 1 0.948021 0.194385 0.500000 
610 1 0.937802 0.211317 0.500000 
611 1 0.957807 0.211443 0.500000 
612 1 0.968031 0.194496 0.500000 
613 1 0.977825 0.211543 0.500000 
614 1 0.988043 0.194599 0.500000 
615 1 0.997847 0.211634 0.500000 
616 1 0.017654 0.218157 0.500000 
617 1 0.037684 0.218790 0.500000 
618 1 0.057718 0.219436 0.500000 
619 1 0.077773 0.220123 0.500000 
620 1 0.097834 0.220848 0.500000 
621 1 0.117898 0.221591 0.500000 
622 1 0.137967 0.222348 0.500000 
623 1 0.158034 0.223114 0.500000 
624 1 0.178095 0.223901 0.500000 
625 1 0.198154 0.224702 0.500000 
626 1 0.218213 0.225516 0.500000 
627 1 0.238267 0.226362 0.500000 
628 1 0.258315 0.227215 0.500000 
629 1 0.278348 0.228080 0.500000 
630 1 0.298374 0.228952 0.500000 
631 1 0.308785 0.212495 0.500000 
632 1 0.318390 0.229825 0.500000 
633 1 0.328793 0.213354 0.500000 
634 1 0.338393 0.230716 0.500000 
635 1 0.348786 0.214224 0.500000 
636 1 0.358387 0.231610 0.500000 
637 1 0.368768 0.215092 0.500000 
638 1 0.388732 0.215954 0.500000 
639 1 0.408687 0.216808 0.500000 
640 1 0.428640 0.217633 0.500000 
641 1 0.448575 0.218452 0.500000 
642 1 0.468502 0.219243 0.500000 
643 1 0.488424 0.219986 0.500000 
644 1 0.508343 0.220702 0.500000 
645 1 0.528266 0.221375 0.500000 
646 1 0.548185 0.222003 0.500000 
647 1 0.568107 0.222600 0.500000 
648 1 0.588031 0.223147 0.500000 
649 1 0.607961 0.223659 0.500000 
650 1 0.627898 0.224126 0.500000 
651 1 0.647847 0.224567 0.500000 
652 1 0.667802 0.224967 0.500000 
653 1 0.687757 0.225349 0.500000 
654 1 0.707714 0.225706 0.500000 
655 1 0.727680 0.226031 0.500000 
656 1 0.747657 0.226332 0.500000 
657 1 0.767637 0.226615 0.500000 
658 1 0.787618 0.226872 0.500000 
659 1 0.807601 0.227115 0.500000 
660 1 0.827592 0.227334 0.500000 
661 1 0.847583 0.227536 0.500000 
662 1 0.867578 0.227727 0.500000 
663 1 0.887576 0.227911 0.500000 
664 1 0.907573 0.228084 0.500000 
665 1 0.927573 0.228242 0.500000 
666 1 0.947580 0.228392 0.500000 
667 1 0.967605 0.228489 0.500000 
668 1 0.987634 0.228577 0.500000 
669 1 0.007189 0.234587 0.500000 
670 1 0.027214 0.235215 0.500000 
671 1 0.047243 0.235854 0.500000 
672 1 0.067275 0.236508 0.500000 
673 1 0.087341 0.237235 0.500000 
674 1 0.107405 0.237974 0.500000 
675 1 0.127473 0.238726 0.500000 
676 1 0.147544 0.239495 0.500000 
677 1 0.167609 0.240278 0.500000 
678 1 0.187676 0.241086 0.500000 
679 1 0.207743 0.241907 0.500000 
680 1 0.227801 0.242751 0.500000 
681 1 0.247858 0.243614 0.500000 
682 1 0.267908 0.244495 0.500000 
683 1 0.287947 0.245384 0.500000 
684 1 0.307976 0.246277 0.500000 
685 1 0.327990 0.247186 0.500000 
686 1 0.347994 0.248101 0.500000 
687 1 0.378368 0.232501 0.500000 
688 1 0.367985 0.249016 0.500000 
689 1 0.398331 0.233383 0.500000 
690 1 0.387959 0.249931 0.500000 
691 1 0.418289 0.234240 0.500000 
692 1 0.407924 0.250829 0.500000 
693 1 0.438228 0.235089 0.500000 
694 1 0.427871 0.251713 0.500000 
695 1 0.458159 0.235912 0.500000 
696 1 0.478090 0.236694 0.500000 
697 1 0.498008 0.237438 0.500000 
698 1 0.517924 0.238137 0.500000 
699 1 0.537849 0.238793 0.500000 
700 1 0.557776 0.239406 0.500000 
701 1 0.577708 0.239976 0.500000 
702 1 0.597643 0.240504 0.500000 
703 1 0.617585 0.240988 0.500000 
704 1 0.637536 0.241434 0.500000 
705 1 0.657494 0.241853 0.500000 
706 1 0.677452 0.242238 0.500000 
707 1 0.697417 0.242601 0.500000 
708 1 0.717392 0.242932 0.500000 
709 1 0.737369 0.243239 0.500000 
710 1 0.757352 0.243527 0.500000 
711 1 0.777343 0.243789 0.500000 
712 1 0.797335 0.244036 0.500000 
713 1 0.817330 0.244258 0.500000 
714 1 0.837329 0.244465 0.500000 
715 1 0.857331 0.244655 0.500000 
716 1 0.877334 0.244838 0.500000 
717 1 0.897340 0.245012 0.500000 
718 1 0.917348 0.245170 0.500000 
719 1 0.937362 0.245316 0.500000 
720 1 0.957383 0.245436 0.500000 
721 1 0.977417 0.245522 0.500000 
722 1 0.997455 0.245600 0.500000 
723 1 0.016737 0.251640 0.500000 
724 1 0.006256 0.268068 0.500000 
725 1 0.036760 0.252274 0.500000 
726 1 0.026272 0.268696 0.500000 
727 1 0.056787 0.252921 0.500000 
728 1 0.046292 0.269335 0.500000 
729 1 0.076841 0.253617 0.500000 
730 1 0.066319 0.269991 0.500000 
731 1 0.096898 0.254350 0.500000 
732 1 0.086382 0.270725 0.500000 
733 1 0.116962 0.255099 0.500000 
734 1 0.137032 0.255863 0.500000 
735 1 0.157101 0.256648 0.500000 
736 1 0.177168 0.257452 0.500000 
737 1 0.197238 0.258278 0.500000 
738 1 0.217308 0.259128 0.500000 
739 1 0.237370 0.259993 0.500000 
740 1 0.257431 0.260880 0.500000 
741 1 0.277486 0.261785 0.500000 
742 1 0.297531 0.262699 0.500000 
743 1 0.317562 0.263629 0.500000 
744 1 0.337583 0.264564 0.500000 
745 1 0.357585 0.265506 0.500000 
746 1 0.377567 0.266452 0.500000 
747 1 0.397535 0.267387 0.500000 
748 1 0.417492 0.268313 0.500000 
749 1 0.437441 0.269205 0.500000 
750 1 0.447809 0.252569 0.500000 
751 1 0.457376 0.270065 0.500000 
752 1 0.467740 0.253385 0.500000 
753 1 0.477304 0.270880 0.500000 
754 1 0.487665 0.254168 0.500000 
755 1 0.507583 0.254901 0.500000 
756 1 0.527507 0.255575 0.500000 
757 1 0.547439 0.256212 0.500000 
758 1 0.567377 0.256801 0.500000 
759 1 0.587317 0.257349 0.500000 
760 1 0.607265 0.257848 0.500000 
761 1 0.627216 0.258308 0.500000 
762 1 0.647175 0.258739 0.500000 
763 1 0.667141 0.259134 0.500000 
764 1 0.687114 0.259498 0.500000 
765 1 0.707096 0.259835 0.500000 
766 1 0.727080 0.260147 0.500000 
767 1 0.747070 0.260438 0.500000 
768 1 0.767070 0.260706 0.500000 
769 1 0.787069 0.260957 0.500000 
770 1 0.807071 0.261185 0.500000 
771 1 0.827074 0.261393 0.500000 
772 1 0.847085 0.261583 0.500000 
773 1 0.867094 0.261767 0.500000 
774 1 0.887104 0.261938 0.500000 
775 1 0.907118 0.262098 0.500000 
776 1 0.927138 0.262243 0.500000 
777 1 0.947159 0.262387 0.500000 
778 1 0.967200 0.262468 0.500000 
779 1 0.987245 0.262544 0.500000 
780 1 0.015779 0.285121 0.500000 
781 1 0.035792 0.285753 0.500000 
782 1 0.055810 0.286400 0.500000 
783 1 0.075854 0.287092 0.500000 
784 1 0.095908 0.287835 0.500000 
785 1 0.106440 0.271468 0.500000 
786 1 0.115969 0.288588 0.500000 
787 1 0.126507 0.272228 0.500000 
788 1 0.136035 0.289364 0.500000 
789 1 0.146575 0.273008 0.500000 
790 1 0.156102 0.290158 0.500000 
791 1 0.166646 0.273812 0.500000 
792 1 0.176176 0.290980 0.500000 
793 1 0.186715 0.274636 0.500000 
794 1 0.206784 0.275478 0.500000 
795 1 0.226861 0.276353 0.500000 
796 1 0.246931 0.277243 0.500000 
797 1 0.266997 0.278160 0.500000 
798 1 0.287052 0.279087 0.500000 
799 1 0.307100 0.280039 0.500000 
800 1 0.327136 0.280995 0.500000 
801 1 0.347153 0.281968 0.500000 
802 1 0.367154 0.282942 0.500000 
803 1 0.387138 0.283917 0.500000 
804 1 0.407102 0.284882 0.500000 
805 1 0.427058 0.285816 0.500000 
806 1 0.446996 0.286725 0.500000 
807 1 0.466929 0.287581 0.500000 
808 1 0.497228 0.271651 0.500000 
809 1 0.486855 0.288390 0.500000 
810 1 0.506785 0.289129 0.500000 
811 1 0.517158 0.272356 0.500000 
812 1 0.526718 0.289820 0.500000 
813 1 0.537086 0.273018 0.500000 
814 1 0.546660 0.290454 0.500000 
815 1 0.557023 0.273629 0.500000 
816 1 0.576969 0.274193 0.500000 
817 1 0.596926 0.274706 0.500000 
818 1 0.616885 0.275186 0.500000 
819 1 0.636852 0.275623 0.500000 
820 1 0.656826 0.276030 0.500000 
821 1 0.676807 0.276400 0.500000 
822 1 0.696793 0.276742 0.500000 
823 1 0.716784 0.277054 0.500000 
824 1 0.736784 0.277349 0.500000 
825 1 0.756787 0.277625 0.500000 
826 1 0.776795 0.277880 0.500000 
827 1 0.796806 0.278109 0.500000 
828 1 0.816816 0.278324 0.500000 
829 1 0.836830 0.278514 0.500000 
830 1 0.856848 0.278700 0.500000 
831 1 0.876870 0.278869 0.500000 
832 1 0.896893 0.279027 0.500000 
833 1 0.916920 0.279173 0.500000 
834 1 0.936948 0.279308 0.500000 
835 1 0.956982 0.279417 0.500000 
836 1 0.977036 0.279488 0.500000 
837 1 0.997089 0.279555 0.500000 
838 1 0.005284 0.301547 0.500000 
839 1 0.025288 0.302175 0.500000 
840 1 0.045299 0.302815 0.500000 
841 1 0.065313 0.303468 0.500000 
842 1 0.085364 0.304198 0.500000 
843 1 0.105419 0.304944 0.500000 
844 1 0.125481 0.305710 0.500000 
845 1 0.145546 0.306502 0.500000 
846 1 0.165614 0.307311 0.500000 
847 1 0.196251 0.291822 0.500000 
848 1 0.185686 0.308150 0.500000 
849 1 0.216325 0.292687 0.500000 
850 1 0.205763 0.309014 0.500000 
851 1 0.236403 0.293585 0.500000 
852 1 0.225840 0.309904 0.500000 
853 1 0.256473 0.294507 0.500000 
854 1 0.245922 0.310833 0.500000 
855 1 0.276543 0.295451 0.500000 
856 1 0.266003 0.311781 0.500000 
857 1 0.296600 0.296414 0.500000 
858 1 0.316654 0.297395 0.500000 
859 1 0.336690 0.298396 0.500000 
860 1 0.356710 0.299401 0.500000 
861 1 0.376713 0.300409 0.500000 
862 1 0.396691 0.301420 0.500000 
863 1 0.416652 0.302399 0.500000 
864 1 0.436599 0.303363 0.500000 
865 1 0.456538 0.304267 0.500000 
866 1 0.476468 0.305119 0.500000 
867 1 0.496398 0.305903 0.500000 
868 1 0.516335 0.306621 0.500000 
869 1 0.536284 0.307280 0.500000 
870 1 0.566613 0.291038 0.500000 
871 1 0.556239 0.307879 0.500000 
872 1 0.586574 0.291569 0.500000 
873 1 0.576208 0.308431 0.500000 
874 1 0.606541 0.292062 0.500000 
875 1 0.596181 0.308939 0.500000 
876 1 0.626518 0.292511 0.500000 
877 1 0.616166 0.309399 0.500000 
878 1 0.646499 0.292925 0.500000 
879 1 0.636159 0.309826 0.500000 
880 1 0.666489 0.293301 0.500000 
881 1 0.686485 0.293649 0.500000 