ITEM: TIMESTEP
200
ITEM: NUMBER OF ATOMS
2850
ITEM: BOX BOUNDS ss ss pp
-28.0536 28.3253 
-28.9988 28.9984 
-0.5 0.5 
ITEM: ATOMS id type xs ys zs
1 1 0.012661 0.000000 0.500000 
2 1 0.032688 0.000597 0.500000 
3 1 0.052715 0.001202 0.500000 
4 1 0.072742 0.001814 0.500000 
5 1 0.092767 0.002433 0.500000 
6 1 0.112794 0.003060 0.500000 
7 1 0.132817 0.003697 0.500000 
8 1 0.152841 0.004338 0.500000 
9 1 0.172861 0.004988 0.500000 
10 1 0.192879 0.005643 0.500000 
11 1 0.212895 0.006305 0.500000 
12 1 0.232906 0.006973 0.500000 
13 1 0.252912 0.007645 0.500000 
14 1 0.272914 0.008319 0.500000 
15 1 0.292911 0.008997 0.500000 
16 1 0.312901 0.009676 0.500000 
17 1 0.332885 0.010356 0.500000 
18 1 0.352861 0.011033 0.500000 
19 1 0.372830 0.011707 0.500000 
20 1 0.392791 0.012376 0.500000 
21 1 0.022340 0.017073 0.500000 
22 1 0.042369 0.017677 0.500000 
23 1 0.062397 0.018289 0.500000 
24 1 0.082426 0.018911 0.500000 
25 1 0.102455 0.019539 0.500000 
26 1 0.122484 0.020177 0.500000 
27 1 0.142511 0.020822 0.500000 
28 1 0.162536 0.021475 0.500000 
29 1 0.182559 0.022136 0.500000 
30 1 0.202579 0.022803 0.500000 
31 1 0.222596 0.023475 0.500000 
32 1 0.242610 0.024155 0.500000 
33 1 0.262618 0.024839 0.500000 
34 1 0.282622 0.025527 0.500000 
35 1 0.302619 0.026217 0.500000 
36 1 0.322610 0.026908 0.500000 
37 1 0.342593 0.027600 0.500000 
38 1 0.362570 0.028289 0.500000 
39 1 0.382537 0.028974 0.500000 
40 1 0.402497 0.029655 0.500000 
41 1 0.412744 0.013039 0.500000 
42 1 0.422448 0.030326 0.500000 
43 1 0.432688 0.013694 0.500000 
44 1 0.442390 0.030989 0.500000 
45 1 0.452624 0.014337 0.500000 
46 1 0.462324 0.031639 0.500000 
47 1 0.472553 0.014968 0.500000 
48 1 0.482250 0.032276 0.500000 
49 1 0.492474 0.015584 0.500000 
50 1 0.512388 0.016184 0.500000 
51 1 0.532295 0.016766 0.500000 
52 1 0.552198 0.017330 0.500000 
53 1 0.572095 0.017873 0.500000 
54 1 0.591989 0.018396 0.500000 
55 1 0.611880 0.018896 0.500000 
56 1 0.631769 0.019373 0.500000 
57 1 0.651657 0.019829 0.500000 
58 1 0.671546 0.020261 0.500000 
59 1 0.691436 0.020670 0.500000 
60 1 0.711328 0.021058 0.500000 
61 1 0.731222 0.021423 0.500000 
62 1 0.751120 0.021768 0.500000 
63 1 0.771021 0.022094 0.500000 
64 1 0.790927 0.022399 0.500000 
65 1 0.810837 0.022687 0.500000 
66 1 0.830751 0.022958 0.500000 
67 1 0.850671 0.023211 0.500000 
68 1 0.870595 0.023449 0.500000 
69 1 0.890525 0.023674 0.500000 
70 1 0.910459 0.023884 0.500000 
71 1 0.930398 0.024080 0.500000 
72 1 0.950341 0.024267 0.500000 
73 1 0.970290 0.024443 0.500000 
74 1 0.990243 0.024606 0.500000 
75 1 0.011983 0.033545 0.500000 
76 1 0.032014 0.034148 0.500000 
77 1 0.021650 0.050615 0.500000 
78 1 0.052044 0.034760 0.500000 
79 1 0.041680 0.051227 0.500000 
80 1 0.072075 0.035381 0.500000 
81 1 0.061715 0.051847 0.500000 
82 1 0.092107 0.036012 0.500000 
83 1 0.081749 0.052478 0.500000 
84 1 0.112138 0.036650 0.500000 
85 1 0.132168 0.037297 0.500000 
86 1 0.152197 0.037952 0.500000 
87 1 0.172226 0.038617 0.500000 
88 1 0.192251 0.039288 0.500000 
89 1 0.212274 0.039967 0.500000 
90 1 0.232293 0.040654 0.500000 
91 1 0.252309 0.041345 0.500000 
92 1 0.272318 0.042042 0.500000 
93 1 0.292324 0.042743 0.500000 
94 1 0.312323 0.043447 0.500000 
95 1 0.332314 0.044150 0.500000 
96 1 0.352297 0.044856 0.500000 
97 1 0.372273 0.045557 0.500000 
98 1 0.392240 0.046254 0.500000 
99 1 0.412198 0.046944 0.500000 
100 1 0.432147 0.047626 0.500000 
101 1 0.452087 0.048297 0.500000 
102 1 0.472018 0.048954 0.500000 
103 1 0.502167 0.032896 0.500000 
104 1 0.491940 0.049595 0.500000 
105 1 0.522078 0.033498 0.500000 
106 1 0.511855 0.050220 0.500000 
107 1 0.541983 0.034081 0.500000 
108 1 0.531762 0.050823 0.500000 
109 1 0.561882 0.034643 0.500000 
110 1 0.551663 0.051406 0.500000 
111 1 0.581777 0.035184 0.500000 
112 1 0.571560 0.051966 0.500000 
113 1 0.601668 0.035702 0.500000 
114 1 0.591452 0.052503 0.500000 
115 1 0.621558 0.036195 0.500000 
116 1 0.641446 0.036666 0.500000 
117 1 0.661334 0.037110 0.500000 
118 1 0.681223 0.037533 0.500000 
119 1 0.701115 0.037931 0.500000 
120 1 0.721007 0.038307 0.500000 
121 1 0.740905 0.038660 0.500000 
122 1 0.760806 0.038993 0.500000 
123 1 0.780711 0.039305 0.500000 
124 1 0.800620 0.039597 0.500000 
125 1 0.820536 0.039873 0.500000 
126 1 0.840456 0.040130 0.500000 
127 1 0.860382 0.040369 0.500000 
128 1 0.880312 0.040595 0.500000 
129 1 0.900248 0.040807 0.500000 
130 1 0.920188 0.041005 0.500000 
131 1 0.940134 0.041192 0.500000 
132 1 0.960084 0.041368 0.500000 
133 1 0.980040 0.041531 0.500000 
134 1 1.000000 0.041686 0.500000 
135 1 0.011275 0.067077 0.500000 
136 1 0.031308 0.067688 0.500000 
137 1 0.051342 0.068307 0.500000 
138 1 0.071376 0.068936 0.500000 
139 1 0.091415 0.069581 0.500000 
140 1 0.101783 0.053120 0.500000 
141 1 0.111451 0.070234 0.500000 
142 1 0.121816 0.053770 0.500000 
143 1 0.131485 0.070895 0.500000 
144 1 0.141847 0.054428 0.500000 
145 1 0.151517 0.071566 0.500000 
146 1 0.161876 0.055095 0.500000 
147 1 0.171547 0.072244 0.500000 
148 1 0.181904 0.055771 0.500000 
149 1 0.201929 0.056454 0.500000 
150 1 0.221949 0.057144 0.500000 
151 1 0.241967 0.057841 0.500000 
152 1 0.261980 0.058545 0.500000 
153 1 0.281988 0.059253 0.500000 
154 1 0.301992 0.059966 0.500000 
155 1 0.321988 0.060681 0.500000 
156 1 0.341978 0.061398 0.500000 
157 1 0.361960 0.062114 0.500000 
158 1 0.381934 0.062826 0.500000 
159 1 0.401900 0.063534 0.500000 
160 1 0.421856 0.064234 0.500000 
161 1 0.441803 0.064926 0.500000 
162 1 0.461742 0.065605 0.500000 
163 1 0.481671 0.066269 0.500000 
164 1 0.501592 0.066915 0.500000 
165 1 0.521506 0.067542 0.500000 
166 1 0.541412 0.068147 0.500000 
167 1 0.561313 0.068729 0.500000 
168 1 0.581210 0.069286 0.500000 
169 1 0.601103 0.069818 0.500000 
170 1 0.611341 0.053013 0.500000 
171 1 0.620994 0.070322 0.500000 
172 1 0.631230 0.053499 0.500000 
173 1 0.640883 0.070799 0.500000 
174 1 0.651117 0.053960 0.500000 
175 1 0.671006 0.054396 0.500000 
176 1 0.660773 0.071250 0.500000 
177 1 0.690897 0.054806 0.500000 
178 1 0.680663 0.071673 0.500000 
179 1 0.710789 0.055192 0.500000 
180 1 0.700557 0.072072 0.500000 
181 1 0.730685 0.055554 0.500000 
182 1 0.720453 0.072443 0.500000 
183 1 0.750586 0.055894 0.500000 
184 1 0.770490 0.056213 0.500000 
185 1 0.790400 0.056511 0.500000 
186 1 0.810316 0.056789 0.500000 
187 1 0.830238 0.057049 0.500000 
188 1 0.850164 0.057294 0.500000 
189 1 0.870095 0.057522 0.500000 
190 1 0.890032 0.057734 0.500000 
191 1 0.909975 0.057934 0.500000 
192 1 0.929922 0.058120 0.500000 
193 1 0.949875 0.058294 0.500000 
194 1 0.969833 0.058458 0.500000 
195 1 0.989796 0.058613 0.500000 
196 1 0.020924 0.084144 0.500000 
197 1 0.040959 0.084763 0.500000 
198 1 0.060994 0.085390 0.500000 
199 1 0.081034 0.086033 0.500000 
200 1 0.101073 0.086688 0.500000 
201 1 0.121110 0.087352 0.500000 
202 1 0.141146 0.088025 0.500000 
203 1 0.161178 0.088706 0.500000 
204 1 0.191574 0.072930 0.500000 
205 1 0.181209 0.089396 0.500000 
206 1 0.211597 0.073625 0.500000 
207 1 0.201235 0.090095 0.500000 
208 1 0.221259 0.090802 0.500000 
209 1 0.231617 0.074328 0.500000 
210 1 0.241279 0.091516 0.500000 
211 1 0.251634 0.075037 0.500000 
212 1 0.261295 0.092238 0.500000 
213 1 0.271646 0.075753 0.500000 
214 1 0.291653 0.076474 0.500000 
215 1 0.311655 0.077199 0.500000 
216 1 0.331650 0.077926 0.500000 
217 1 0.351639 0.078654 0.500000 
218 1 0.371621 0.079382 0.500000 
219 1 0.391594 0.080106 0.500000 
220 1 0.411558 0.080826 0.500000 
221 1 0.431513 0.081537 0.500000 
222 1 0.451458 0.082237 0.500000 
223 1 0.471395 0.082924 0.500000 
224 1 0.491323 0.083595 0.500000 
225 1 0.511242 0.084246 0.500000 
226 1 0.531154 0.084876 0.500000 
227 1 0.551060 0.085481 0.500000 
228 1 0.570961 0.086061 0.500000 
229 1 0.590857 0.086614 0.500000 
230 1 0.610751 0.087138 0.500000 
231 1 0.630642 0.087634 0.500000 
232 1 0.650533 0.088101 0.500000 
233 1 0.670425 0.088540 0.500000 
234 1 0.690319 0.088951 0.500000 
235 1 0.710216 0.089333 0.500000 
236 1 0.730118 0.089689 0.500000 
237 1 0.740354 0.072791 0.500000 
238 1 0.750026 0.090021 0.500000 
239 1 0.760261 0.073116 0.500000 
240 1 0.769940 0.090330 0.500000 
241 1 0.780173 0.073419 0.500000 
242 1 0.789859 0.090618 0.500000 
243 1 0.800091 0.073702 0.500000 
244 1 0.809785 0.090884 0.500000 
245 1 0.820014 0.073965 0.500000 
246 1 0.829716 0.091134 0.500000 
247 1 0.839943 0.074211 0.500000 
248 1 0.849653 0.091365 0.500000 
249 1 0.859878 0.074442 0.500000 
250 1 0.869596 0.091582 0.500000 
251 1 0.879817 0.074657 0.500000 
252 1 0.889543 0.091785 0.500000 
253 1 0.899762 0.074858 0.500000 
254 1 0.909494 0.091974 0.500000 
255 1 0.919712 0.075046 0.500000 
256 1 0.929450 0.092154 0.500000 
257 1 0.939665 0.075223 0.500000 
258 1 0.949407 0.092323 0.500000 
259 1 0.959621 0.075390 0.500000 
260 1 0.979588 0.075542 0.500000 
261 1 0.999557 0.075685 0.500000 
262 1 0.010532 0.100598 0.500000 
263 1 0.030566 0.101214 0.500000 
264 1 0.050602 0.101839 0.500000 
265 1 0.070640 0.102476 0.500000 
266 1 0.090682 0.103132 0.500000 
267 1 0.110722 0.103799 0.500000 
268 1 0.130761 0.104473 0.500000 
269 1 0.150798 0.105157 0.500000 
270 1 0.170831 0.105849 0.500000 
271 1 0.190862 0.106551 0.500000 
272 1 0.210890 0.107262 0.500000 
273 1 0.230913 0.107980 0.500000 
274 1 0.250934 0.108708 0.500000 
275 1 0.270950 0.109442 0.500000 
276 1 0.281306 0.092966 0.500000 
277 1 0.290962 0.110184 0.500000 
278 1 0.301313 0.093700 0.500000 
279 1 0.310970 0.110930 0.500000 
280 1 0.321315 0.094438 0.500000 
281 1 0.330971 0.111680 0.500000 
282 1 0.341310 0.095178 0.500000 
283 1 0.361298 0.095919 0.500000 
284 1 0.381279 0.096659 0.500000 
285 1 0.401251 0.097397 0.500000 
286 1 0.421214 0.098128 0.500000 
287 1 0.441167 0.098850 0.500000 
288 1 0.461111 0.099561 0.500000 
289 1 0.481045 0.100255 0.500000 
290 1 0.500970 0.100932 0.500000 
291 1 0.520888 0.101588 0.500000 
292 1 0.540798 0.102219 0.500000 
293 1 0.560703 0.102823 0.500000 
294 1 0.580604 0.103400 0.500000 
295 1 0.600500 0.103947 0.500000 
296 1 0.620394 0.104464 0.500000 
297 1 0.640287 0.104950 0.500000 
298 1 0.660180 0.105405 0.500000 
299 1 0.680075 0.105829 0.500000 
300 1 0.699973 0.106224 0.500000 
301 1 0.719876 0.106590 0.500000 
302 1 0.739784 0.106928 0.500000 
303 1 0.759699 0.107244 0.500000 
304 1 0.779620 0.107536 0.500000 
305 1 0.799548 0.107807 0.500000 
306 1 0.819482 0.108058 0.500000 
307 1 0.839422 0.108293 0.500000 
308 1 0.859367 0.108510 0.500000 
309 1 0.879318 0.108714 0.500000 
310 1 0.899272 0.108905 0.500000 
311 1 0.919231 0.109084 0.500000 
312 1 0.939193 0.109255 0.500000 
313 1 0.969375 0.092475 0.500000 
314 1 0.959160 0.109410 0.500000 
315 1 0.989349 0.092617 0.500000 
316 1 0.979136 0.109550 0.500000 
317 1 0.999117 0.109681 0.500000 
318 1 0.020165 0.117663 0.500000 
319 1 0.040201 0.118287 0.500000 
320 1 0.060239 0.118920 0.500000 
321 1 0.080278 0.119569 0.500000 
322 1 0.100320 0.120235 0.500000 
323 1 0.120362 0.120910 0.500000 
324 1 0.140402 0.121596 0.500000 
325 1 0.160441 0.122290 0.500000 
326 1 0.180475 0.122994 0.500000 
327 1 0.200507 0.123706 0.500000 
328 1 0.220536 0.124429 0.500000 
329 1 0.240561 0.125160 0.500000 
330 1 0.260582 0.125900 0.500000 
331 1 0.280600 0.126648 0.500000 
332 1 0.300613 0.127402 0.500000 
333 1 0.320622 0.128162 0.500000 
334 1 0.340625 0.128927 0.500000 
335 1 0.350967 0.112435 0.500000 
336 1 0.360621 0.129695 0.500000 
337 1 0.370955 0.113189 0.500000 
338 1 0.380610 0.130466 0.500000 
339 1 0.390935 0.113943 0.500000 
340 1 0.400589 0.131235 0.500000 
341 1 0.410906 0.114694 0.500000 
342 1 0.420558 0.132000 0.500000 
343 1 0.430867 0.115438 0.500000 
344 1 0.450818 0.116172 0.500000 
345 1 0.470759 0.116894 0.500000 
346 1 0.490691 0.117598 0.500000 
347 1 0.510613 0.118282 0.500000 
348 1 0.530528 0.118941 0.500000 
349 1 0.550437 0.119573 0.500000 
350 1 0.570341 0.120176 0.500000 
351 1 0.590240 0.120747 0.500000 
352 1 0.610137 0.121287 0.500000 
353 1 0.630033 0.121795 0.500000 
354 1 0.649928 0.122268 0.500000 
355 1 0.669825 0.122708 0.500000 
356 1 0.689725 0.123116 0.500000 
357 1 0.709628 0.123492 0.500000 
358 1 0.729538 0.123840 0.500000 
359 1 0.749453 0.124161 0.500000 
360 1 0.769376 0.124458 0.500000 
361 1 0.789306 0.124733 0.500000 
362 1 0.809242 0.124987 0.500000 
363 1 0.829185 0.125222 0.500000 
364 1 0.849133 0.125442 0.500000 
365 1 0.869087 0.125646 0.500000 
366 1 0.889045 0.125838 0.500000 
367 1 0.909007 0.126017 0.500000 
368 1 0.928972 0.126187 0.500000 
369 1 0.948940 0.126349 0.500000 
370 1 0.968919 0.126487 0.500000 
371 1 0.988905 0.126616 0.500000 
372 1 0.009754 0.134110 0.500000 
373 1 0.029790 0.134729 0.500000 
374 1 0.019367 0.151171 0.500000 
375 1 0.049825 0.135360 0.500000 
376 1 0.039403 0.151799 0.500000 
377 1 0.069865 0.136003 0.500000 
378 1 0.089905 0.136664 0.500000 
379 1 0.109949 0.137338 0.500000 
380 1 0.129992 0.138024 0.500000 
381 1 0.150034 0.138719 0.500000 
382 1 0.170073 0.139424 0.500000 
383 1 0.190110 0.140140 0.500000 
384 1 0.210143 0.140864 0.500000 
385 1 0.230173 0.141599 0.500000 
386 1 0.250201 0.142342 0.500000 
387 1 0.270224 0.143095 0.500000 
388 1 0.290244 0.143856 0.500000 
389 1 0.310260 0.144625 0.500000 
390 1 0.330271 0.145400 0.500000 
391 1 0.350276 0.146181 0.500000 
392 1 0.370272 0.146966 0.500000 
393 1 0.390261 0.147754 0.500000 
394 1 0.410239 0.148541 0.500000 
395 1 0.440517 0.132760 0.500000 
396 1 0.430206 0.149325 0.500000 
397 1 0.460465 0.133508 0.500000 
398 1 0.450162 0.150100 0.500000 
399 1 0.480403 0.134241 0.500000 
400 1 0.470107 0.150864 0.500000 
401 1 0.500331 0.134955 0.500000 
402 1 0.490041 0.151611 0.500000 
403 1 0.520250 0.135645 0.500000 
404 1 0.540162 0.136308 0.500000 
405 1 0.560069 0.136940 0.500000 
406 1 0.579972 0.137539 0.500000 
407 1 0.599872 0.138104 0.500000 
408 1 0.619770 0.138634 0.500000 
409 1 0.639668 0.139128 0.500000 
410 1 0.659568 0.139586 0.500000 
411 1 0.679469 0.140008 0.500000 
412 1 0.699375 0.140396 0.500000 
413 1 0.719284 0.140753 0.500000 
414 1 0.739201 0.141081 0.500000 
415 1 0.759126 0.141384 0.500000 
416 1 0.779057 0.141661 0.500000 
417 1 0.798996 0.141919 0.500000 
418 1 0.818942 0.142157 0.500000 
419 1 0.838892 0.142378 0.500000 
420 1 0.858850 0.142582 0.500000 
421 1 0.878812 0.142773 0.500000 
422 1 0.898778 0.142953 0.500000 
423 1 0.918748 0.143122 0.500000 
424 1 0.938722 0.143283 0.500000 
425 1 0.958701 0.143428 0.500000 
426 1 0.978689 0.143555 0.500000 
427 1 0.998682 0.143674 0.500000 
428 1 0.008938 0.167610 0.500000 
429 1 0.028972 0.168234 0.500000 
430 1 0.049008 0.168868 0.500000 
431 1 0.059442 0.152437 0.500000 
432 1 0.069047 0.169517 0.500000 
433 1 0.079480 0.153091 0.500000 
434 1 0.089086 0.170182 0.500000 
435 1 0.099522 0.153761 0.500000 
436 1 0.109128 0.170861 0.500000 
437 1 0.119567 0.154444 0.500000 
438 1 0.139611 0.155140 0.500000 
439 1 0.129173 0.171555 0.500000 
440 1 0.159655 0.155847 0.500000 
441 1 0.179696 0.156563 0.500000 
442 1 0.199734 0.157290 0.500000 
443 1 0.219769 0.158027 0.500000 
444 1 0.239802 0.158774 0.500000 
445 1 0.259831 0.159531 0.500000 
446 1 0.279859 0.160299 0.500000 
447 1 0.299883 0.161076 0.500000 
448 1 0.319901 0.161860 0.500000 
449 1 0.339915 0.162655 0.500000 
450 1 0.359921 0.163455 0.500000 
451 1 0.379919 0.164262 0.500000 
452 1 0.399907 0.165070 0.500000 
453 1 0.419883 0.165878 0.500000 
454 1 0.439848 0.166682 0.500000 
455 1 0.459800 0.167477 0.500000 
456 1 0.479741 0.168256 0.500000 
457 1 0.499670 0.169015 0.500000 
458 1 0.509965 0.152334 0.500000 
459 1 0.519589 0.169746 0.500000 
460 1 0.529880 0.153030 0.500000 
461 1 0.539501 0.170445 0.500000 
462 1 0.549789 0.153695 0.500000 
463 1 0.559407 0.171106 0.500000 
464 1 0.569694 0.154324 0.500000 
465 1 0.579309 0.171729 0.500000 
466 1 0.589595 0.154917 0.500000 
467 1 0.609497 0.155472 0.500000 
468 1 0.629398 0.155987 0.500000 
469 1 0.649300 0.156464 0.500000 
470 1 0.669205 0.156902 0.500000 
471 1 0.689113 0.157303 0.500000 
472 1 0.709026 0.157670 0.500000 
473 1 0.728944 0.158005 0.500000 
474 1 0.748869 0.158313 0.500000 
475 1 0.768802 0.158596 0.500000 
476 1 0.788743 0.158856 0.500000 
477 1 0.808692 0.159096 0.500000 
478 1 0.828648 0.159317 0.500000 
479 1 0.848608 0.159523 0.500000 
480 1 0.868574 0.159713 0.500000 
481 1 0.888545 0.159892 0.500000 
482 1 0.908520 0.160059 0.500000 
483 1 0.928497 0.160219 0.500000 
484 1 0.948477 0.160370 0.500000 
485 1 0.968470 0.160496 0.500000 
486 1 0.988467 0.160611 0.500000 
487 1 0.018532 0.184668 0.500000 
488 1 0.038566 0.185299 0.500000 
489 1 0.058602 0.185942 0.500000 
490 1 0.078642 0.186602 0.500000 
491 1 0.098680 0.187276 0.500000 
492 1 0.118724 0.187965 0.500000 
493 1 0.138770 0.188669 0.500000 
494 1 0.149220 0.172262 0.500000 
495 1 0.158817 0.189387 0.500000 
496 1 0.169265 0.172980 0.500000 
497 1 0.178863 0.190117 0.500000 
498 1 0.189308 0.173708 0.500000 
499 1 0.198908 0.190859 0.500000 
500 1 0.209348 0.174448 0.500000 
501 1 0.218950 0.191612 0.500000 
502 1 0.229386 0.175198 0.500000 
503 1 0.249421 0.175960 0.500000 
504 1 0.269455 0.176734 0.500000 
505 1 0.289487 0.177519 0.500000 
506 1 0.309516 0.178316 0.500000 
507 1 0.329538 0.179123 0.500000 
508 1 0.349554 0.179939 0.500000 
509 1 0.369562 0.180765 0.500000 
510 1 0.389560 0.181596 0.500000 
511 1 0.409547 0.182430 0.500000 
512 1 0.429521 0.183262 0.500000 
513 1 0.449481 0.184089 0.500000 
514 1 0.469428 0.184902 0.500000 
515 1 0.489363 0.185697 0.500000 
516 1 0.509287 0.186465 0.500000 
517 1 0.529201 0.187199 0.500000 
518 1 0.549108 0.187895 0.500000 
519 1 0.569011 0.188547 0.500000 
520 1 0.588914 0.189154 0.500000 
521 1 0.599211 0.172309 0.500000 
522 1 0.608818 0.189716 0.500000 
523 1 0.619114 0.172848 0.500000 
524 1 0.628725 0.190232 0.500000 
525 1 0.639020 0.173344 0.500000 
526 1 0.648638 0.190704 0.500000 
527 1 0.658929 0.173800 0.500000 
528 1 0.668554 0.191133 0.500000 
529 1 0.678840 0.174214 0.500000 
530 1 0.688476 0.191520 0.500000 
531 1 0.698757 0.174591 0.500000 
532 1 0.718679 0.174935 0.500000 
533 1 0.738607 0.175248 0.500000 
534 1 0.758543 0.175535 0.500000 
535 1 0.778486 0.175797 0.500000 
536 1 0.798437 0.176039 0.500000 
537 1 0.818395 0.176261 0.500000 
538 1 0.838361 0.176466 0.500000 
539 1 0.858331 0.176656 0.500000 
540 1 0.878307 0.176834 0.500000 
541 1 0.898287 0.177000 0.500000 
542 1 0.918269 0.177157 0.500000 
543 1 0.938257 0.177306 0.500000 
544 1 0.958249 0.177440 0.500000 
545 1 0.978251 0.177553 0.500000 
546 1 0.998258 0.177659 0.500000 
547 1 0.008083 0.201103 0.500000 
548 1 0.028113 0.201727 0.500000 
549 1 0.048147 0.202367 0.500000 
550 1 0.068185 0.203017 0.500000 
551 1 0.088223 0.203690 0.500000 
552 1 0.108264 0.204372 0.500000 
553 1 0.128307 0.205070 0.500000 
554 1 0.148354 0.205783 0.500000 
555 1 0.168402 0.206513 0.500000 
556 1 0.188450 0.207255 0.500000 
557 1 0.208497 0.208012 0.500000 
558 1 0.238992 0.192380 0.500000 
559 1 0.228545 0.208784 0.500000 
560 1 0.259033 0.193160 0.500000 
561 1 0.248593 0.209571 0.500000 
562 1 0.279074 0.193954 0.500000 
563 1 0.268642 0.210374 0.500000 
564 1 0.299111 0.194761 0.500000 
565 1 0.288689 0.211193 0.500000 
566 1 0.319145 0.195583 0.500000 
567 1 0.339171 0.196416 0.500000 
568 1 0.359190 0.197261 0.500000 
569 1 0.379198 0.198115 0.500000 
570 1 0.399194 0.198974 0.500000 
571 1 0.419178 0.199836 0.500000 
572 1 0.439147 0.200695 0.500000 
573 1 0.459102 0.201545 0.500000 
574 1 0.479043 0.202377 0.500000 
575 1 0.498971 0.203185 0.500000 
576 1 0.518887 0.203959 0.500000 
577 1 0.538795 0.204691 0.500000 
578 1 0.558698 0.205376 0.500000 
579 1 0.578600 0.206009 0.500000 
580 1 0.598505 0.206593 0.500000 
581 1 0.618414 0.207129 0.500000 
582 1 0.638329 0.207619 0.500000 
583 1 0.658251 0.208062 0.500000 
584 1 0.678179 0.208461 0.500000 
585 1 0.708403 0.191871 0.500000 
586 1 0.698112 0.208818 0.500000 
587 1 0.728335 0.192189 0.500000 
588 1 0.718052 0.209140 0.500000 
589 1 0.748275 0.192479 0.500000 
590 1 0.737998 0.209431 0.500000 
591 1 0.768221 0.192744 0.500000 
592 1 0.757950 0.209697 0.500000 
593 1 0.788176 0.192987 0.500000 
594 1 0.777908 0.209940 0.500000 
595 1 0.808138 0.193209 0.500000 
596 1 0.797875 0.210164 0.500000 
597 1 0.828107 0.193415 0.500000 
598 1 0.817849 0.210368 0.500000 
599 1 0.848083 0.193604 0.500000 
600 1 0.837829 0.210557 0.500000 
601 1 0.868063 0.193780 0.500000 
602 1 0.857816 0.210731 0.500000 
603 1 0.888049 0.193945 0.500000 
604 1 0.877807 0.210893 0.500000 
605 1 0.908037 0.194099 0.500000 
606 1 0.897801 0.211044 0.500000 
607 1 0.928028 0.194245 0.500000 
608 1 0.917799 0.211187 0.500000 
609 1 0.948021 0.194385 0.500000 
610 1 0.937800 0.211324 0.500000 
611 1 0.957807 0.211443 0.500000 
612 1 0.968031 0.194496 0.500000 
613 1 0.977825 0.211543 0.500000 
614 1 0.988043 0.194599 0.500000 
615 1 0.997847 0.211634 0.500000 
616 1 0.017654 0.218157 0.500000 
617 1 0.037684 0.218790 0.500000 
618 1 0.057718 0.219436 0.500000 
619 1 0.077753 0.220099 0.500000 
620 1 0.097792 0.220779 0.500000 
621 1 0.117833 0.221470 0.500000 
622 1 0.137877 0.222176 0.500000 
623 1 0.157925 0.222901 0.500000 
624 1 0.177974 0.223643 0.500000 
625 1 0.198025 0.224401 0.500000 
626 1 0.218078 0.225175 0.500000 
627 1 0.238134 0.225969 0.500000 
628 1 0.258191 0.226779 0.500000 
629 1 0.278248 0.227609 0.500000 
630 1 0.298303 0.228455 0.500000 
631 1 0.308734 0.212027 0.500000 
632 1 0.318352 0.229317 0.500000 
633 1 0.328771 0.212876 0.500000 
634 1 0.338393 0.230194 0.500000 
635 1 0.348801 0.213739 0.500000 
636 1 0.358423 0.231085 0.500000 
637 1 0.368820 0.214613 0.500000 
638 1 0.388827 0.215496 0.500000 
639 1 0.408820 0.216385 0.500000 
640 1 0.428800 0.217276 0.500000 
641 1 0.448764 0.218162 0.500000 
642 1 0.468712 0.219037 0.500000 
643 1 0.488645 0.219890 0.500000 
644 1 0.508563 0.220712 0.500000 
645 1 0.528469 0.221489 0.500000 
646 1 0.548370 0.222212 0.500000 
647 1 0.568269 0.222876 0.500000 
648 1 0.588173 0.223482 0.500000 
649 1 0.608084 0.224037 0.500000 
650 1 0.628002 0.224543 0.500000 
651 1 0.647928 0.225003 0.500000 
652 1 0.667861 0.225414 0.500000 
653 1 0.687802 0.225780 0.500000 
654 1 0.707751 0.226105 0.500000 
655 1 0.727706 0.226396 0.500000 
656 1 0.747666 0.226661 0.500000 
657 1 0.767632 0.226902 0.500000 
658 1 0.787604 0.227124 0.500000 
659 1 0.807584 0.227328 0.500000 
660 1 0.827570 0.227514 0.500000 
661 1 0.847563 0.227686 0.500000 
662 1 0.867560 0.227846 0.500000 
663 1 0.887561 0.227994 0.500000 
664 1 0.907566 0.228133 0.500000 
665 1 0.927572 0.228265 0.500000 
666 1 0.947580 0.228392 0.500000 
667 1 0.967605 0.228489 0.500000 
668 1 0.987634 0.228577 0.500000 
669 1 0.007189 0.234587 0.500000 
670 1 0.027214 0.235215 0.500000 
671 1 0.047243 0.235854 0.500000 
672 1 0.067275 0.236508 0.500000 
673 1 0.087310 0.237183 0.500000 
674 1 0.107349 0.237872 0.500000 
675 1 0.127390 0.238572 0.500000 
676 1 0.147434 0.239288 0.500000 
677 1 0.167483 0.240025 0.500000 
678 1 0.187536 0.240782 0.500000 
679 1 0.207593 0.241559 0.500000 
680 1 0.227654 0.242357 0.500000 
681 1 0.247720 0.243175 0.500000 
682 1 0.267787 0.244013 0.500000 
683 1 0.287853 0.244869 0.500000 
684 1 0.307911 0.245742 0.500000 
685 1 0.327963 0.246632 0.500000 
686 1 0.348005 0.247537 0.500000 
687 1 0.378442 0.231988 0.500000 
688 1 0.368036 0.248458 0.500000 
689 1 0.398448 0.232902 0.500000 
690 1 0.388054 0.249394 0.500000 
691 1 0.418439 0.233821 0.500000 
692 1 0.408060 0.250341 0.500000 
693 1 0.438414 0.234743 0.500000 
694 1 0.428049 0.251295 0.500000 
695 1 0.458372 0.235660 0.500000 
696 1 0.478312 0.236562 0.500000 
697 1 0.498232 0.237439 0.500000 
698 1 0.518135 0.238272 0.500000 
699 1 0.538028 0.239046 0.500000 
700 1 0.557922 0.239749 0.500000 
701 1 0.577822 0.240382 0.500000 
702 1 0.597733 0.240955 0.500000 
703 1 0.617655 0.241476 0.500000 
704 1 0.637586 0.241949 0.500000 
705 1 0.657524 0.242375 0.500000 
706 1 0.677472 0.242754 0.500000 
707 1 0.697428 0.243086 0.500000 
708 1 0.717394 0.243377 0.500000 
709 1 0.737366 0.243637 0.500000 
710 1 0.757343 0.243875 0.500000 
711 1 0.777324 0.244093 0.500000 
712 1 0.797311 0.244294 0.500000 
713 1 0.817305 0.244477 0.500000 
714 1 0.837304 0.244647 0.500000 
715 1 0.857309 0.244803 0.500000 
716 1 0.877317 0.244948 0.500000 
717 1 0.897330 0.245083 0.500000 
718 1 0.917343 0.245210 0.500000 
719 1 0.937361 0.245332 0.500000 
720 1 0.957383 0.245436 0.500000 
721 1 0.977417 0.245522 0.500000 
722 1 0.997455 0.245600 0.500000 
723 1 0.016737 0.251640 0.500000 
724 1 0.006256 0.268068 0.500000 
725 1 0.036760 0.252274 0.500000 
726 1 0.026272 0.268696 0.500000 
727 1 0.056787 0.252921 0.500000 
728 1 0.046292 0.269335 0.500000 
729 1 0.076818 0.253587 0.500000 
730 1 0.066319 0.269991 0.500000 
731 1 0.096854 0.254269 0.500000 
732 1 0.086348 0.270667 0.500000 
733 1 0.116892 0.254966 0.500000 
734 1 0.136933 0.255676 0.500000 
735 1 0.156978 0.256405 0.500000 
736 1 0.177030 0.257157 0.500000 
737 1 0.197089 0.257934 0.500000 
738 1 0.217157 0.258733 0.500000 
739 1 0.237230 0.259556 0.500000 
740 1 0.257306 0.260400 0.500000 
741 1 0.277381 0.261265 0.500000 
742 1 0.297450 0.262147 0.500000 
743 1 0.317513 0.263047 0.500000 
744 1 0.337567 0.263966 0.500000 
745 1 0.357610 0.264905 0.500000 
746 1 0.377644 0.265861 0.500000 
747 1 0.397664 0.266834 0.500000 
748 1 0.417668 0.267820 0.500000 
749 1 0.437651 0.268815 0.500000 
750 1 0.448019 0.252251 0.500000 
751 1 0.457609 0.269814 0.500000 
752 1 0.467968 0.253202 0.500000 
753 1 0.477536 0.270805 0.500000 
754 1 0.487892 0.254135 0.500000 
755 1 0.507793 0.255030 0.500000 
756 1 0.527681 0.255865 0.500000 
757 1 0.547563 0.256620 0.500000 
758 1 0.567453 0.257290 0.500000 
759 1 0.587358 0.257884 0.500000 
760 1 0.607281 0.258416 0.500000 
761 1 0.627219 0.258900 0.500000 
762 1 0.647166 0.259340 0.500000 
763 1 0.667121 0.259733 0.500000 
764 1 0.687085 0.260077 0.500000 
765 1 0.707058 0.260374 0.500000 
766 1 0.727043 0.260633 0.500000 
767 1 0.747034 0.260863 0.500000 
768 1 0.767030 0.261073 0.500000 
769 1 0.787028 0.261268 0.500000 
770 1 0.807031 0.261447 0.500000 
771 1 0.827039 0.261613 0.500000 
772 1 0.847052 0.261765 0.500000 
773 1 0.867069 0.261907 0.500000 
774 1 0.887089 0.262037 0.500000 
775 1 0.907111 0.262160 0.500000 
776 1 0.927134 0.262275 0.500000 
777 1 0.947159 0.262387 0.500000 
778 1 0.967200 0.262468 0.500000 
779 1 0.987245 0.262544 0.500000 
780 1 0.015779 0.285121 0.500000 
781 1 0.035792 0.285753 0.500000 
782 1 0.055810 0.286400 0.500000 
783 1 0.075835 0.287067 0.500000 
784 1 0.095865 0.287750 0.500000 
785 1 0.106383 0.271357 0.500000 
786 1 0.115899 0.288448 0.500000 
787 1 0.126423 0.272063 0.500000 
788 1 0.135940 0.289164 0.500000 
789 1 0.146465 0.272783 0.500000 
790 1 0.155987 0.289900 0.500000 
791 1 0.166513 0.273527 0.500000 
792 1 0.176042 0.290660 0.500000 
793 1 0.186572 0.274298 0.500000 
794 1 0.206641 0.275096 0.500000 
795 1 0.226720 0.275920 0.500000 
796 1 0.246805 0.276768 0.500000 
797 1 0.266889 0.277637 0.500000 
798 1 0.286970 0.278527 0.500000 
799 1 0.307044 0.279437 0.500000 
800 1 0.327113 0.280368 0.500000 
801 1 0.347172 0.281321 0.500000 
802 1 0.367222 0.282296 0.500000 
803 1 0.387259 0.283290 0.500000 
804 1 0.407280 0.284303 0.500000 
805 1 0.427276 0.285334 0.500000 
806 1 0.447239 0.286380 0.500000 
807 1 0.467168 0.287429 0.500000 
808 1 0.497438 0.271764 0.500000 
809 1 0.487070 0.288455 0.500000 
810 1 0.506954 0.289431 0.500000 
811 1 0.517322 0.272666 0.500000 
812 1 0.526823 0.290331 0.500000 
813 1 0.537196 0.273486 0.500000 
814 1 0.546685 0.291126 0.500000 
815 1 0.557071 0.274206 0.500000 
816 1 0.576961 0.274829 0.500000 
817 1 0.596877 0.275373 0.500000 
818 1 0.616817 0.275860 0.500000 
819 1 0.636776 0.276306 0.500000 
820 1 0.656746 0.276710 0.500000 
821 1 0.676721 0.277070 0.500000 
822 1 0.696704 0.277379 0.500000 
823 1 0.716697 0.277642 0.500000 
824 1 0.736701 0.277868 0.500000 
825 1 0.756714 0.278070 0.500000 
826 1 0.776729 0.278254 0.500000 
827 1 0.796746 0.278426 0.500000 
828 1 0.816765 0.278586 0.500000 
829 1 0.836789 0.278734 0.500000 
830 1 0.856815 0.278870 0.500000 
831 1 0.876845 0.278996 0.500000 
832 1 0.896876 0.279114 0.500000 
833 1 0.916908 0.279224 0.500000 
834 1 0.936943 0.279328 0.500000 
835 1 0.956982 0.279417 0.500000 
836 1 0.977036 0.279488 0.500000 
837 1 0.997089 0.279555 0.500000 
838 1 0.005284 0.301547 0.500000 
839 1 0.025288 0.302175 0.500000 
840 1 0.045299 0.302815 0.500000 
841 1 0.065313 0.303468 0.500000 
842 1 0.085338 0.304146 0.500000 
843 1 0.105367 0.304835 0.500000 
844 1 0.125404 0.305542 0.500000 
845 1 0.145448 0.306271 0.500000 
846 1 0.165502 0.307023 0.500000 
847 1 0.196111 0.291451 0.500000 
848 1 0.185569 0.307803 0.500000 
849 1 0.216193 0.292272 0.500000 
850 1 0.205649 0.308614 0.500000 
851 1 0.236283 0.293120 0.500000 
852 1 0.225742 0.309456 0.500000 
853 1 0.256377 0.293991 0.500000 
854 1 0.245844 0.310325 0.500000 
855 1 0.276470 0.294885 0.500000 
856 1 0.265949 0.311222 0.500000 
857 1 0.296560 0.295803 0.500000 
858 1 0.316645 0.296746 0.500000 
859 1 0.336723 0.297711 0.500000 
860 1 0.356794 0.298700 0.500000 
861 1 0.376852 0.299709 0.500000 
862 1 0.396890 0.300745 0.500000 
863 1 0.416894 0.301809 0.500000 
864 1 0.436860 0.302901 0.500000 
865 1 0.456792 0.304003 0.500000 
866 1 0.476700 0.305088 0.500000 
867 1 0.496583 0.306140 0.500000 
868 1 0.516445 0.307126 0.500000 
869 1 0.536302 0.308007 0.500000 
870 1 0.566555 0.291796 0.500000 
871 1 0.556162 0.308756 0.500000 
872 1 0.586449 0.292356 0.500000 
873 1 0.576030 0.309367 0.500000 
874 1 0.606378 0.292842 0.500000 
875 1 0.595926 0.309861 0.500000 
876 1 0.626342 0.293282 0.500000 
877 1 0.615871 0.310284 0.500000 
878 1 0.646330 0.293688 0.500000 
879 1 0.635863 0.310676 0.500000 
880 1 0.666328 0.294057 0.500000 
881 1 0.686328 0.294381 0.500000 