ITEM: TIMESTEP
3800
ITEM: NUMBER OF ATOMS
2850
ITEM: BOX BOUNDS ss ss pp
-28.0536 28.3253 
-28.9988 28.9984 
-0.5 0.5 
ITEM: ATOMS id type xs ys zs
1 1 0.012661 0.000000 0.500000 
2 1 0.032688 0.000597 0.500000 
3 1 0.052715 0.001202 0.500000 
4 1 0.072742 0.001814 0.500000 
5 1 0.092767 0.002433 0.500000 
6 1 0.112794 0.003060 0.500000 
7 1 0.132817 0.003697 0.500000 
8 1 0.152841 0.004338 0.500000 
9 1 0.172861 0.004988 0.500000 
10 1 0.192879 0.005643 0.500000 
11 1 0.212895 0.006305 0.500000 
12 1 0.232906 0.006973 0.500000 
13 1 0.252912 0.007645 0.500000 
14 1 0.272914 0.008319 0.500000 
15 1 0.292911 0.008997 0.500000 
16 1 0.312901 0.009676 0.500000 
17 1 0.332885 0.010356 0.500000 
18 1 0.352861 0.011033 0.500000 
19 1 0.372830 0.011707 0.500000 
20 1 0.392791 0.012376 0.500000 
21 1 0.022340 0.017073 0.500000 
22 1 0.042369 0.017677 0.500000 
23 1 0.062397 0.018289 0.500000 
24 1 0.082426 0.018911 0.500000 
25 1 0.102455 0.019539 0.500000 
26 1 0.122484 0.020177 0.500000 
27 1 0.142511 0.020822 0.500000 
28 1 0.162536 0.021475 0.500000 
29 1 0.182559 0.022136 0.500000 
30 1 0.202579 0.022803 0.500000 
31 1 0.222596 0.023475 0.500000 
32 1 0.242610 0.024155 0.500000 
33 1 0.262618 0.024839 0.500000 
34 1 0.282622 0.025527 0.500000 
35 1 0.302619 0.026217 0.500000 
36 1 0.322610 0.026908 0.500000 
37 1 0.342593 0.027600 0.500000 
38 1 0.362570 0.028289 0.500000 
39 1 0.382537 0.028974 0.500000 
40 1 0.402497 0.029655 0.500000 
41 1 0.412744 0.013039 0.500000 
42 1 0.422448 0.030326 0.500000 
43 1 0.432688 0.013694 0.500000 
44 1 0.442390 0.030989 0.500000 
45 1 0.452624 0.014337 0.500000 
46 1 0.462324 0.031639 0.500000 
47 1 0.472553 0.014968 0.500000 
48 1 0.482250 0.032276 0.500000 
49 1 0.492474 0.015584 0.500000 
50 1 0.512388 0.016184 0.500000 
51 1 0.532295 0.016766 0.500000 
52 1 0.552198 0.017330 0.500000 
53 1 0.572095 0.017873 0.500000 
54 1 0.591989 0.018396 0.500000 
55 1 0.611880 0.018896 0.500000 
56 1 0.631769 0.019373 0.500000 
57 1 0.651657 0.019829 0.500000 
58 1 0.671546 0.020261 0.500000 
59 1 0.691436 0.020670 0.500000 
60 1 0.711328 0.021058 0.500000 
61 1 0.731222 0.021423 0.500000 
62 1 0.751120 0.021768 0.500000 
63 1 0.771021 0.022094 0.500000 
64 1 0.790927 0.022399 0.500000 
65 1 0.810837 0.022687 0.500000 
66 1 0.830751 0.022958 0.500000 
67 1 0.850671 0.023211 0.500000 
68 1 0.870595 0.023449 0.500000 
69 1 0.890525 0.023674 0.500000 
70 1 0.910459 0.023884 0.500000 
71 1 0.930398 0.024080 0.500000 
72 1 0.950341 0.024267 0.500000 
73 1 0.970290 0.024443 0.500000 
74 1 0.990243 0.024606 0.500000 
75 1 0.011983 0.033545 0.500000 
76 1 0.032014 0.034148 0.500000 
77 1 0.021650 0.050615 0.500000 
78 1 0.052044 0.034760 0.500000 
79 1 0.041680 0.051227 0.500000 
80 1 0.072075 0.035381 0.500000 
81 1 0.061715 0.051847 0.500000 
82 1 0.092107 0.036012 0.500000 
83 1 0.081750 0.052478 0.500000 
84 1 0.112138 0.036650 0.500000 
85 1 0.132168 0.037297 0.500000 
86 1 0.152197 0.037952 0.500000 
87 1 0.172226 0.038617 0.500000 
88 1 0.192251 0.039288 0.500000 
89 1 0.212274 0.039967 0.500000 
90 1 0.232293 0.040654 0.500000 
91 1 0.252309 0.041345 0.500000 
92 1 0.272318 0.042042 0.500000 
93 1 0.292324 0.042743 0.500000 
94 1 0.312323 0.043447 0.500000 
95 1 0.332314 0.044150 0.500000 
96 1 0.352297 0.044856 0.500000 
97 1 0.372273 0.045557 0.500000 
98 1 0.392240 0.046254 0.500000 
99 1 0.412198 0.046944 0.500000 
100 1 0.432147 0.047626 0.500000 
101 1 0.452087 0.048297 0.500000 
102 1 0.472018 0.048954 0.500000 
103 1 0.502167 0.032896 0.500000 
104 1 0.491940 0.049595 0.500000 
105 1 0.522078 0.033498 0.500000 
106 1 0.511855 0.050220 0.500000 
107 1 0.541983 0.034081 0.500000 
108 1 0.531762 0.050823 0.500000 
109 1 0.561882 0.034643 0.500000 
110 1 0.551663 0.051406 0.500000 
111 1 0.581777 0.035184 0.500000 
112 1 0.571560 0.051966 0.500000 
113 1 0.601668 0.035702 0.500000 
114 1 0.591452 0.052503 0.500000 
115 1 0.621558 0.036195 0.500000 
116 1 0.641446 0.036666 0.500000 
117 1 0.661334 0.037110 0.500000 
118 1 0.681223 0.037533 0.500000 
119 1 0.701115 0.037931 0.500000 
120 1 0.721007 0.038307 0.500000 
121 1 0.740905 0.038660 0.500000 
122 1 0.760806 0.038993 0.500000 
123 1 0.780711 0.039305 0.500000 
124 1 0.800620 0.039597 0.500000 
125 1 0.820536 0.039873 0.500000 
126 1 0.840456 0.040130 0.500000 
127 1 0.860382 0.040369 0.500000 
128 1 0.880312 0.040595 0.500000 
129 1 0.900248 0.040807 0.500000 
130 1 0.920188 0.041005 0.500000 
131 1 0.940134 0.041192 0.500000 
132 1 0.960084 0.041368 0.500000 
133 1 0.980040 0.041531 0.500000 
134 1 1.000000 0.041686 0.500000 
135 1 0.011275 0.067077 0.500000 
136 1 0.031308 0.067688 0.500000 
137 1 0.051342 0.068307 0.500000 
138 1 0.071376 0.068936 0.500000 
139 1 0.091418 0.069582 0.500000 
140 1 0.101788 0.053123 0.500000 
141 1 0.111457 0.070245 0.500000 
142 1 0.121822 0.053778 0.500000 
143 1 0.131494 0.070913 0.500000 
144 1 0.141855 0.054440 0.500000 
145 1 0.151534 0.071588 0.500000 
146 1 0.161888 0.055109 0.500000 
147 1 0.171566 0.072272 0.500000 
148 1 0.181916 0.055788 0.500000 
149 1 0.201942 0.056471 0.500000 
150 1 0.221962 0.057163 0.500000 
151 1 0.241978 0.057863 0.500000 
152 1 0.261989 0.058566 0.500000 
153 1 0.281996 0.059276 0.500000 
154 1 0.301996 0.059993 0.500000 
155 1 0.321991 0.060713 0.500000 
156 1 0.341973 0.061424 0.500000 
157 1 0.361952 0.062139 0.500000 
158 1 0.381919 0.062854 0.500000 
159 1 0.401877 0.063562 0.500000 
160 1 0.421828 0.064260 0.500000 
161 1 0.441772 0.064950 0.500000 
162 1 0.461705 0.065624 0.500000 
163 1 0.481632 0.066283 0.500000 
164 1 0.501550 0.066925 0.500000 
165 1 0.521461 0.067544 0.500000 
166 1 0.541368 0.068144 0.500000 
167 1 0.561268 0.068726 0.500000 
168 1 0.581166 0.069273 0.500000 
169 1 0.601065 0.069801 0.500000 
170 1 0.611341 0.053013 0.500000 
171 1 0.620960 0.070308 0.500000 
172 1 0.631230 0.053499 0.500000 
173 1 0.640854 0.070775 0.500000 
174 1 0.651117 0.053960 0.500000 
175 1 0.671006 0.054396 0.500000 
176 1 0.660749 0.071224 0.500000 
177 1 0.690897 0.054806 0.500000 
178 1 0.680646 0.071645 0.500000 
179 1 0.710789 0.055192 0.500000 
180 1 0.700549 0.072044 0.500000 
181 1 0.730685 0.055554 0.500000 
182 1 0.720452 0.072417 0.500000 
183 1 0.750586 0.055894 0.500000 
184 1 0.770490 0.056213 0.500000 
185 1 0.790400 0.056511 0.500000 
186 1 0.810316 0.056789 0.500000 
187 1 0.830238 0.057049 0.500000 
188 1 0.850164 0.057294 0.500000 
189 1 0.870095 0.057522 0.500000 
190 1 0.890032 0.057734 0.500000 
191 1 0.909975 0.057934 0.500000 
192 1 0.929922 0.058120 0.500000 
193 1 0.949875 0.058294 0.500000 
194 1 0.969833 0.058458 0.500000 
195 1 0.989796 0.058613 0.500000 
196 1 0.020924 0.084144 0.500000 
197 1 0.040959 0.084763 0.500000 
198 1 0.060994 0.085390 0.500000 
199 1 0.081043 0.086036 0.500000 
200 1 0.101084 0.086701 0.500000 
201 1 0.121124 0.087373 0.500000 
202 1 0.141168 0.088051 0.500000 
203 1 0.161209 0.088747 0.500000 
204 1 0.191596 0.072961 0.500000 
205 1 0.181239 0.089443 0.500000 
206 1 0.211621 0.073664 0.500000 
207 1 0.201267 0.090149 0.500000 
208 1 0.221290 0.090870 0.500000 
209 1 0.231638 0.074372 0.500000 
210 1 0.241311 0.091587 0.500000 
211 1 0.251654 0.075081 0.500000 
212 1 0.261327 0.092313 0.500000 
213 1 0.271664 0.075800 0.500000 
214 1 0.291664 0.076528 0.500000 
215 1 0.311664 0.077259 0.500000 
216 1 0.331654 0.077990 0.500000 
217 1 0.351628 0.078711 0.500000 
218 1 0.371597 0.079441 0.500000 
219 1 0.391562 0.080167 0.500000 
220 1 0.411519 0.080883 0.500000 
221 1 0.431465 0.081588 0.500000 
222 1 0.451401 0.082287 0.500000 
223 1 0.471328 0.082963 0.500000 
224 1 0.491249 0.083623 0.500000 
225 1 0.511163 0.084259 0.500000 
226 1 0.531075 0.084876 0.500000 
227 1 0.550981 0.085477 0.500000 
228 1 0.570886 0.086047 0.500000 
229 1 0.590786 0.086584 0.500000 
230 1 0.610685 0.087106 0.500000 
231 1 0.630587 0.087592 0.500000 
232 1 0.650487 0.088050 0.500000 
233 1 0.670386 0.088487 0.500000 
234 1 0.690288 0.088890 0.500000 
235 1 0.710198 0.089275 0.500000 
236 1 0.730110 0.089635 0.500000 
237 1 0.740357 0.072767 0.500000 
238 1 0.750030 0.089970 0.500000 
239 1 0.760267 0.073093 0.500000 
240 1 0.769951 0.090284 0.500000 
241 1 0.780181 0.073398 0.500000 
242 1 0.789877 0.090571 0.500000 
243 1 0.800104 0.073682 0.500000 
244 1 0.809806 0.090843 0.500000 
245 1 0.820029 0.073945 0.500000 
246 1 0.829737 0.091095 0.500000 
247 1 0.839958 0.074197 0.500000 
248 1 0.849672 0.091336 0.500000 
249 1 0.859891 0.074429 0.500000 
250 1 0.869615 0.091557 0.500000 
251 1 0.879827 0.074646 0.500000 
252 1 0.889558 0.091766 0.500000 
253 1 0.899770 0.074850 0.500000 
254 1 0.909507 0.091960 0.500000 
255 1 0.919720 0.075040 0.500000 
256 1 0.929457 0.092149 0.500000 
257 1 0.939670 0.075222 0.500000 
258 1 0.949407 0.092323 0.500000 
259 1 0.959621 0.075390 0.500000 
260 1 0.979588 0.075542 0.500000 
261 1 0.999557 0.075685 0.500000 
262 1 0.010532 0.100598 0.500000 
263 1 0.030566 0.101214 0.500000 
264 1 0.050602 0.101839 0.500000 
265 1 0.070640 0.102476 0.500000 
266 1 0.090693 0.103146 0.500000 
267 1 0.110741 0.103824 0.500000 
268 1 0.130785 0.104505 0.500000 
269 1 0.150824 0.105204 0.500000 
270 1 0.170861 0.105915 0.500000 
271 1 0.190896 0.106625 0.500000 
272 1 0.210924 0.107351 0.500000 
273 1 0.230953 0.108079 0.500000 
274 1 0.250975 0.108814 0.500000 
275 1 0.270983 0.109565 0.500000 
276 1 0.281328 0.093055 0.500000 
277 1 0.290987 0.110314 0.500000 
278 1 0.301324 0.093790 0.500000 
279 1 0.310984 0.111068 0.500000 
280 1 0.321318 0.094536 0.500000 
281 1 0.330974 0.111828 0.500000 
282 1 0.341304 0.095278 0.500000 
283 1 0.361275 0.096018 0.500000 
284 1 0.381240 0.096757 0.500000 
285 1 0.401200 0.097490 0.500000 
286 1 0.421150 0.098217 0.500000 
287 1 0.441086 0.098935 0.500000 
288 1 0.461015 0.099633 0.500000 
289 1 0.480942 0.100310 0.500000 
290 1 0.500861 0.100971 0.500000 
291 1 0.520775 0.101601 0.500000 
292 1 0.540684 0.102220 0.500000 
293 1 0.560597 0.102810 0.500000 
294 1 0.580505 0.103370 0.500000 
295 1 0.600406 0.103902 0.500000 
296 1 0.620311 0.104402 0.500000 
297 1 0.640218 0.104876 0.500000 
298 1 0.660123 0.105325 0.500000 
299 1 0.680033 0.105744 0.500000 
300 1 0.699945 0.106132 0.500000 
301 1 0.719861 0.106503 0.500000 
302 1 0.739781 0.106840 0.500000 
303 1 0.759710 0.107163 0.500000 
304 1 0.779641 0.107461 0.500000 
305 1 0.799571 0.107738 0.500000 
306 1 0.819509 0.107998 0.500000 
307 1 0.839444 0.108243 0.500000 
308 1 0.859389 0.108466 0.500000 
309 1 0.879338 0.108684 0.500000 
310 1 0.899288 0.108880 0.500000 
311 1 0.919245 0.109072 0.500000 
312 1 0.939203 0.109253 0.500000 
313 1 0.969375 0.092475 0.500000 
314 1 0.959160 0.109410 0.500000 
315 1 0.989349 0.092617 0.500000 
316 1 0.979136 0.109550 0.500000 
317 1 0.999117 0.109681 0.500000 
318 1 0.020165 0.117663 0.500000 
319 1 0.040201 0.118287 0.500000 
320 1 0.060239 0.118920 0.500000 
321 1 0.080289 0.119581 0.500000 
322 1 0.100340 0.120262 0.500000 
323 1 0.120390 0.120951 0.500000 
324 1 0.140434 0.121651 0.500000 
325 1 0.160476 0.122367 0.500000 
326 1 0.180518 0.123088 0.500000 
327 1 0.200551 0.123820 0.500000 
328 1 0.220587 0.124554 0.500000 
329 1 0.240613 0.125301 0.500000 
330 1 0.260626 0.126058 0.500000 
331 1 0.280638 0.126821 0.500000 
332 1 0.300639 0.127590 0.500000 
333 1 0.320633 0.128363 0.500000 
334 1 0.340619 0.129137 0.500000 
335 1 0.350954 0.112588 0.500000 
336 1 0.360596 0.129910 0.500000 
337 1 0.370923 0.113339 0.500000 
338 1 0.380559 0.130677 0.500000 
339 1 0.390884 0.114087 0.500000 
340 1 0.400511 0.131440 0.500000 
341 1 0.410836 0.114835 0.500000 
342 1 0.420458 0.132195 0.500000 
343 1 0.430778 0.115572 0.500000 
344 1 0.450711 0.116291 0.500000 
345 1 0.470639 0.116988 0.500000 
346 1 0.490562 0.117672 0.500000 
347 1 0.510480 0.118327 0.500000 
348 1 0.530390 0.118959 0.500000 
349 1 0.550302 0.119562 0.500000 
350 1 0.570213 0.120146 0.500000 
351 1 0.590118 0.120695 0.500000 
352 1 0.610027 0.121210 0.500000 
353 1 0.629939 0.121697 0.500000 
354 1 0.649851 0.122161 0.500000 
355 1 0.669764 0.122592 0.500000 
356 1 0.689682 0.122993 0.500000 
357 1 0.709604 0.123370 0.500000 
358 1 0.729531 0.123719 0.500000 
359 1 0.749456 0.124041 0.500000 
360 1 0.769387 0.124347 0.500000 
361 1 0.789324 0.124634 0.500000 
362 1 0.809268 0.124896 0.500000 
363 1 0.829214 0.125153 0.500000 
364 1 0.849159 0.125380 0.500000 
365 1 0.869107 0.125597 0.500000 
366 1 0.889063 0.125804 0.500000 
367 1 0.909021 0.125990 0.500000 
368 1 0.928981 0.126178 0.500000 
369 1 0.948940 0.126349 0.500000 
370 1 0.968919 0.126487 0.500000 
371 1 0.988905 0.126616 0.500000 
372 1 0.009754 0.134110 0.500000 
373 1 0.029790 0.134729 0.500000 
374 1 0.019367 0.151171 0.500000 
375 1 0.049825 0.135360 0.500000 
376 1 0.039403 0.151799 0.500000 
377 1 0.069865 0.136003 0.500000 
378 1 0.089925 0.136691 0.500000 
379 1 0.109980 0.137385 0.500000 
380 1 0.130028 0.138090 0.500000 
381 1 0.150073 0.138806 0.500000 
382 1 0.170118 0.139535 0.500000 
383 1 0.190160 0.140277 0.500000 
384 1 0.210205 0.141013 0.500000 
385 1 0.230236 0.141772 0.500000 
386 1 0.250260 0.142539 0.500000 
387 1 0.270274 0.143310 0.500000 
388 1 0.290283 0.144096 0.500000 
389 1 0.310286 0.144883 0.500000 
390 1 0.330277 0.145671 0.500000 
391 1 0.350258 0.146462 0.500000 
392 1 0.370227 0.147249 0.500000 
393 1 0.390184 0.148033 0.500000 
394 1 0.410138 0.148804 0.500000 
395 1 0.440396 0.132936 0.500000 
396 1 0.430082 0.149569 0.500000 
397 1 0.460328 0.133660 0.500000 
398 1 0.450016 0.150317 0.500000 
399 1 0.480251 0.134361 0.500000 
400 1 0.469945 0.151047 0.500000 
401 1 0.500174 0.135040 0.500000 
402 1 0.489863 0.151743 0.500000 
403 1 0.520092 0.135697 0.500000 
404 1 0.540005 0.136317 0.500000 
405 1 0.559917 0.136910 0.500000 
406 1 0.579833 0.137481 0.500000 
407 1 0.599747 0.138011 0.500000 
408 1 0.619661 0.138516 0.500000 
409 1 0.639574 0.138991 0.500000 
410 1 0.659490 0.139438 0.500000 
411 1 0.679413 0.139853 0.500000 
412 1 0.699343 0.140239 0.500000 
413 1 0.719275 0.140597 0.500000 
414 1 0.739206 0.140930 0.500000 
415 1 0.759141 0.141238 0.500000 
416 1 0.779079 0.141530 0.500000 
417 1 0.799022 0.141799 0.500000 
418 1 0.818973 0.142054 0.500000 
419 1 0.838927 0.142298 0.500000 
420 1 0.858881 0.142512 0.500000 
421 1 0.878841 0.142722 0.500000 
422 1 0.898803 0.142915 0.500000 
423 1 0.918762 0.143100 0.500000 
424 1 0.938729 0.143276 0.500000 
425 1 0.958701 0.143428 0.500000 
426 1 0.978689 0.143555 0.500000 
427 1 0.998682 0.143674 0.500000 
428 1 0.008938 0.167610 0.500000 
429 1 0.028972 0.168234 0.500000 
430 1 0.049008 0.168868 0.500000 
431 1 0.059442 0.152437 0.500000 
432 1 0.069047 0.169517 0.500000 
433 1 0.079493 0.153107 0.500000 
434 1 0.089107 0.170219 0.500000 
435 1 0.099550 0.153807 0.500000 
436 1 0.109166 0.170932 0.500000 
437 1 0.119607 0.154518 0.500000 
438 1 0.139659 0.155236 0.500000 
439 1 0.129226 0.171656 0.500000 
440 1 0.159706 0.155971 0.500000 
441 1 0.179750 0.156716 0.500000 
442 1 0.199801 0.157460 0.500000 
443 1 0.219840 0.158224 0.500000 
444 1 0.239873 0.158999 0.500000 
445 1 0.259900 0.159786 0.500000 
446 1 0.279913 0.160582 0.500000 
447 1 0.299923 0.161380 0.500000 
448 1 0.319927 0.162187 0.500000 
449 1 0.339915 0.162995 0.500000 
450 1 0.359892 0.163804 0.500000 
451 1 0.379857 0.164611 0.500000 
452 1 0.399813 0.165401 0.500000 
453 1 0.419761 0.166187 0.500000 
454 1 0.439699 0.166963 0.500000 
455 1 0.459633 0.167714 0.500000 
456 1 0.479561 0.168443 0.500000 
457 1 0.499480 0.169137 0.500000 
458 1 0.509782 0.152418 0.500000 
459 1 0.519396 0.169802 0.500000 
460 1 0.529702 0.153066 0.500000 
461 1 0.539313 0.170439 0.500000 
462 1 0.549618 0.153677 0.500000 
463 1 0.559229 0.171040 0.500000 
464 1 0.569534 0.154259 0.500000 
465 1 0.579147 0.171610 0.500000 
466 1 0.589455 0.154811 0.500000 
467 1 0.609376 0.155334 0.500000 
468 1 0.629293 0.155821 0.500000 
469 1 0.649213 0.156279 0.500000 
470 1 0.669137 0.156711 0.500000 
471 1 0.689070 0.157105 0.500000 
472 1 0.709006 0.157474 0.500000 
473 1 0.728945 0.157818 0.500000 
474 1 0.748886 0.158133 0.500000 
475 1 0.768831 0.158427 0.500000 
476 1 0.788778 0.158703 0.500000 
477 1 0.808727 0.158958 0.500000 
478 1 0.828680 0.159206 0.500000 
479 1 0.848643 0.159430 0.500000 
480 1 0.868607 0.159636 0.500000 
481 1 0.888573 0.159838 0.500000 
482 1 0.908541 0.160026 0.500000 
483 1 0.928508 0.160203 0.500000 
484 1 0.948477 0.160370 0.500000 
485 1 0.968470 0.160496 0.500000 
486 1 0.988467 0.160611 0.500000 
487 1 0.018532 0.184668 0.500000 
488 1 0.038566 0.185299 0.500000 
489 1 0.058602 0.185942 0.500000 
490 1 0.078654 0.186621 0.500000 
491 1 0.098713 0.187338 0.500000 
492 1 0.118774 0.188063 0.500000 
493 1 0.138833 0.188802 0.500000 
494 1 0.149280 0.172391 0.500000 
495 1 0.158889 0.189556 0.500000 
496 1 0.169330 0.173146 0.500000 
497 1 0.178949 0.190316 0.500000 
498 1 0.189382 0.173894 0.500000 
499 1 0.199000 0.191086 0.500000 
500 1 0.209429 0.174662 0.500000 
501 1 0.219049 0.191877 0.500000 
502 1 0.229468 0.175445 0.500000 
503 1 0.249502 0.176237 0.500000 
504 1 0.269530 0.177049 0.500000 
505 1 0.289550 0.177862 0.500000 
506 1 0.309555 0.178680 0.500000 
507 1 0.329553 0.179508 0.500000 
508 1 0.349544 0.180336 0.500000 
509 1 0.369519 0.181167 0.500000 
510 1 0.389483 0.181988 0.500000 
511 1 0.409434 0.182793 0.500000 
512 1 0.429375 0.183593 0.500000 
513 1 0.449313 0.184370 0.500000 
514 1 0.469239 0.185124 0.500000 
515 1 0.489164 0.185849 0.500000 
516 1 0.509084 0.186537 0.500000 
517 1 0.529000 0.187193 0.500000 
518 1 0.548919 0.187818 0.500000 
519 1 0.568839 0.188405 0.500000 
520 1 0.588763 0.188961 0.500000 
521 1 0.599068 0.172146 0.500000 
522 1 0.608691 0.189475 0.500000 
523 1 0.618998 0.172653 0.500000 
524 1 0.628626 0.189963 0.500000 
525 1 0.638928 0.173120 0.500000 
526 1 0.648562 0.190411 0.500000 
527 1 0.658860 0.173562 0.500000 
528 1 0.668506 0.190838 0.500000 
529 1 0.678795 0.173974 0.500000 
530 1 0.688453 0.191227 0.500000 
531 1 0.698734 0.174349 0.500000 
532 1 0.718676 0.174702 0.500000 
533 1 0.738622 0.175029 0.500000 
534 1 0.758570 0.175328 0.500000 
535 1 0.778521 0.175609 0.500000 
536 1 0.798477 0.175869 0.500000 
537 1 0.818433 0.176112 0.500000 
538 1 0.838398 0.176345 0.500000 
539 1 0.858368 0.176556 0.500000 
540 1 0.878338 0.176757 0.500000 
541 1 0.898311 0.176948 0.500000 
542 1 0.918284 0.177130 0.500000 
543 1 0.938263 0.177298 0.500000 
544 1 0.958249 0.177440 0.500000 
545 1 0.978251 0.177553 0.500000 
546 1 0.998258 0.177659 0.500000 
547 1 0.008083 0.201103 0.500000 
548 1 0.028113 0.201727 0.500000 
549 1 0.048147 0.202367 0.500000 
550 1 0.068185 0.203017 0.500000 
551 1 0.088247 0.203734 0.500000 
552 1 0.108308 0.204460 0.500000 
553 1 0.128371 0.205201 0.500000 
554 1 0.148432 0.205956 0.500000 
555 1 0.168497 0.206720 0.500000 
556 1 0.188556 0.207499 0.500000 
557 1 0.208609 0.208290 0.500000 
558 1 0.239093 0.192677 0.500000 
559 1 0.228663 0.209099 0.500000 
560 1 0.259126 0.193496 0.500000 
561 1 0.248708 0.209928 0.500000 
562 1 0.279154 0.194319 0.500000 
563 1 0.268747 0.210763 0.500000 
564 1 0.299173 0.195160 0.500000 
565 1 0.288773 0.211613 0.500000 
566 1 0.319181 0.196001 0.500000 
567 1 0.339182 0.196847 0.500000 
568 1 0.359163 0.197705 0.500000 
569 1 0.379135 0.198550 0.500000 
570 1 0.399096 0.199387 0.500000 
571 1 0.419043 0.200211 0.500000 
572 1 0.438987 0.201010 0.500000 
573 1 0.458920 0.201798 0.500000 
574 1 0.478843 0.202550 0.500000 
575 1 0.498766 0.203267 0.500000 
576 1 0.518684 0.203950 0.500000 
577 1 0.538603 0.204591 0.500000 
578 1 0.558526 0.205200 0.500000 
579 1 0.578452 0.205769 0.500000 
580 1 0.598382 0.206305 0.500000 
581 1 0.618315 0.206801 0.500000 
582 1 0.638257 0.207265 0.500000 
583 1 0.658199 0.207699 0.500000 
584 1 0.678150 0.208103 0.500000 
585 1 0.708397 0.191590 0.500000 
586 1 0.698104 0.208477 0.500000 
587 1 0.728346 0.191924 0.500000 
588 1 0.718058 0.208819 0.500000 
589 1 0.748302 0.192231 0.500000 
590 1 0.738020 0.209133 0.500000 
591 1 0.768257 0.192518 0.500000 
592 1 0.757986 0.209427 0.500000 
593 1 0.788217 0.192781 0.500000 
594 1 0.777955 0.209696 0.500000 
595 1 0.808181 0.193027 0.500000 
596 1 0.797923 0.209944 0.500000 
597 1 0.828151 0.193259 0.500000 
598 1 0.817897 0.210177 0.500000 
599 1 0.848127 0.193476 0.500000 
600 1 0.837878 0.210396 0.500000 
601 1 0.868104 0.193680 0.500000 
602 1 0.857860 0.210605 0.500000 
603 1 0.888083 0.193872 0.500000 
604 1 0.877844 0.210797 0.500000 
605 1 0.908060 0.194053 0.500000 
606 1 0.897827 0.210980 0.500000 
607 1 0.928040 0.194226 0.500000 
608 1 0.917811 0.211151 0.500000 
609 1 0.948021 0.194385 0.500000 
610 1 0.937807 0.211313 0.500000 
611 1 0.957807 0.211443 0.500000 
612 1 0.968031 0.194496 0.500000 
613 1 0.977825 0.211543 0.500000 
614 1 0.988043 0.194599 0.500000 
615 1 0.997847 0.211634 0.500000 
616 1 0.017654 0.218157 0.500000 
617 1 0.037684 0.218790 0.500000 
618 1 0.057718 0.219436 0.500000 
619 1 0.077771 0.220123 0.500000 
620 1 0.097831 0.220851 0.500000 
621 1 0.117894 0.221589 0.500000 
622 1 0.137956 0.222346 0.500000 
623 1 0.158021 0.223111 0.500000 
624 1 0.178088 0.223893 0.500000 
625 1 0.198153 0.224692 0.500000 
626 1 0.218211 0.225502 0.500000 
627 1 0.238263 0.226338 0.500000 
628 1 0.258316 0.227185 0.500000 
629 1 0.278358 0.228048 0.500000 
630 1 0.298387 0.228926 0.500000 
631 1 0.308791 0.212477 0.500000 
632 1 0.318406 0.229807 0.500000 
633 1 0.328800 0.213337 0.500000 
634 1 0.338406 0.230707 0.500000 
635 1 0.348789 0.214219 0.500000 
636 1 0.358401 0.231604 0.500000 
637 1 0.368772 0.215089 0.500000 
638 1 0.388742 0.215956 0.500000 
639 1 0.408697 0.216812 0.500000 
640 1 0.428642 0.217637 0.500000 
641 1 0.448576 0.218451 0.500000 
642 1 0.468507 0.219239 0.500000 
643 1 0.488435 0.219983 0.500000 
644 1 0.508357 0.220696 0.500000 
645 1 0.528281 0.221364 0.500000 
646 1 0.548206 0.221991 0.500000 
647 1 0.568130 0.222580 0.500000 
648 1 0.588060 0.223133 0.500000 
649 1 0.607998 0.223644 0.500000 
650 1 0.627941 0.224116 0.500000 
651 1 0.647887 0.224566 0.500000 
652 1 0.667841 0.224979 0.500000 
653 1 0.687802 0.225357 0.500000 
654 1 0.707765 0.225717 0.500000 
655 1 0.727735 0.226035 0.500000 
656 1 0.747706 0.226335 0.500000 
657 1 0.767682 0.226609 0.500000 
658 1 0.787659 0.226863 0.500000 
659 1 0.807641 0.227097 0.500000 
660 1 0.827627 0.227317 0.500000 
661 1 0.847613 0.227529 0.500000 
662 1 0.867603 0.227724 0.500000 
663 1 0.887595 0.227906 0.500000 
664 1 0.907588 0.228081 0.500000 
665 1 0.927582 0.228240 0.500000 
666 1 0.947580 0.228392 0.500000 
667 1 0.967605 0.228489 0.500000 
668 1 0.987634 0.228577 0.500000 
669 1 0.007189 0.234587 0.500000 
670 1 0.027214 0.235215 0.500000 
671 1 0.047243 0.235854 0.500000 
672 1 0.067275 0.236508 0.500000 
673 1 0.087336 0.237233 0.500000 
674 1 0.107401 0.237970 0.500000 
675 1 0.127468 0.238724 0.500000 
676 1 0.147536 0.239492 0.500000 
677 1 0.167605 0.240274 0.500000 
678 1 0.187676 0.241071 0.500000 
679 1 0.207746 0.241891 0.500000 
680 1 0.227805 0.242729 0.500000 
681 1 0.247865 0.243585 0.500000 
682 1 0.267917 0.244459 0.500000 
683 1 0.287957 0.245350 0.500000 
684 1 0.307989 0.246249 0.500000 
685 1 0.328003 0.247170 0.500000 
686 1 0.348008 0.248092 0.500000 
687 1 0.378380 0.232500 0.500000 
688 1 0.368000 0.249015 0.500000 
689 1 0.398344 0.233386 0.500000 
690 1 0.387975 0.249934 0.500000 
691 1 0.418298 0.234249 0.500000 
692 1 0.407938 0.250836 0.500000 
693 1 0.438236 0.235093 0.500000 
694 1 0.427882 0.251717 0.500000 
695 1 0.458168 0.235910 0.500000 
696 1 0.478096 0.236689 0.500000 
697 1 0.498018 0.237430 0.500000 
698 1 0.517943 0.238127 0.500000 
699 1 0.537871 0.238777 0.500000 
700 1 0.557798 0.239390 0.500000 
701 1 0.577731 0.239956 0.500000 
702 1 0.597671 0.240487 0.500000 
703 1 0.617616 0.240973 0.500000 
704 1 0.637567 0.241428 0.500000 
705 1 0.657529 0.241852 0.500000 
706 1 0.677494 0.242245 0.500000 
707 1 0.697460 0.242609 0.500000 
708 1 0.717435 0.242940 0.500000 
709 1 0.737413 0.243245 0.500000 
710 1 0.757396 0.243525 0.500000 
711 1 0.777384 0.243780 0.500000 
712 1 0.797374 0.244020 0.500000 
713 1 0.817366 0.244241 0.500000 
714 1 0.837359 0.244451 0.500000 
715 1 0.857356 0.244650 0.500000 
716 1 0.877355 0.244832 0.500000 
717 1 0.897357 0.245004 0.500000 
718 1 0.917361 0.245169 0.500000 
719 1 0.937369 0.245320 0.500000 
720 1 0.957383 0.245436 0.500000 
721 1 0.977417 0.245522 0.500000 
722 1 0.997455 0.245600 0.500000 
723 1 0.016737 0.251640 0.500000 
724 1 0.006256 0.268068 0.500000 
725 1 0.036760 0.252274 0.500000 
726 1 0.026272 0.268696 0.500000 
727 1 0.056787 0.252921 0.500000 
728 1 0.046292 0.269335 0.500000 
729 1 0.076838 0.253614 0.500000 
730 1 0.066319 0.269991 0.500000 
731 1 0.096897 0.254345 0.500000 
732 1 0.086379 0.270720 0.500000 
733 1 0.116965 0.255095 0.500000 
734 1 0.137033 0.255863 0.500000 
735 1 0.157103 0.256645 0.500000 
736 1 0.177173 0.257441 0.500000 
737 1 0.197245 0.258258 0.500000 
738 1 0.217316 0.259105 0.500000 
739 1 0.237384 0.259963 0.500000 
740 1 0.257449 0.260846 0.500000 
741 1 0.277505 0.261750 0.500000 
742 1 0.297548 0.262666 0.500000 
743 1 0.317575 0.263606 0.500000 
744 1 0.337597 0.264553 0.500000 
745 1 0.357600 0.265503 0.500000 
746 1 0.377584 0.266456 0.500000 
747 1 0.397553 0.267391 0.500000 
748 1 0.417509 0.268314 0.500000 
749 1 0.437452 0.269207 0.500000 
750 1 0.447815 0.252566 0.500000 
751 1 0.457381 0.270061 0.500000 
752 1 0.467746 0.253383 0.500000 
753 1 0.477306 0.270877 0.500000 
754 1 0.487670 0.254159 0.500000 
755 1 0.507589 0.254885 0.500000 
756 1 0.527517 0.255558 0.500000 
757 1 0.547451 0.256196 0.500000 
758 1 0.567391 0.256779 0.500000 
759 1 0.587336 0.257326 0.500000 
760 1 0.607286 0.257832 0.500000 
761 1 0.627242 0.258295 0.500000 
762 1 0.647205 0.258725 0.500000 
763 1 0.667171 0.259131 0.500000 
764 1 0.687148 0.259505 0.500000 
765 1 0.707131 0.259844 0.500000 
766 1 0.727117 0.260154 0.500000 
767 1 0.747110 0.260440 0.500000 
768 1 0.767106 0.260702 0.500000 
769 1 0.787104 0.260945 0.500000 
770 1 0.807103 0.261169 0.500000 
771 1 0.827102 0.261377 0.500000 
772 1 0.847107 0.261575 0.500000 
773 1 0.867111 0.261760 0.500000 
774 1 0.887121 0.261928 0.500000 
775 1 0.907134 0.262091 0.500000 
776 1 0.927147 0.262246 0.500000 
777 1 0.947159 0.262387 0.500000 
778 1 0.967200 0.262468 0.500000 
779 1 0.987245 0.262544 0.500000 
780 1 0.015779 0.285121 0.500000 
781 1 0.035792 0.285753 0.500000 
782 1 0.055810 0.286400 0.500000 
783 1 0.075855 0.287095 0.500000 
784 1 0.095914 0.287826 0.500000 
785 1 0.106444 0.271460 0.500000 
786 1 0.115977 0.288581 0.500000 
787 1 0.126512 0.272226 0.500000 
788 1 0.136046 0.289357 0.500000 
789 1 0.146583 0.273005 0.500000 
790 1 0.156116 0.290149 0.500000 
791 1 0.166656 0.273803 0.500000 
792 1 0.176195 0.290962 0.500000 
793 1 0.186729 0.274615 0.500000 
794 1 0.206806 0.275459 0.500000 
795 1 0.226885 0.276325 0.500000 
796 1 0.246959 0.277211 0.500000 
797 1 0.267024 0.278121 0.500000 
798 1 0.287081 0.279058 0.500000 
799 1 0.307124 0.280015 0.500000 
800 1 0.327160 0.280980 0.500000 
801 1 0.347180 0.281962 0.500000 
802 1 0.367180 0.282946 0.500000 
803 1 0.387161 0.283920 0.500000 
804 1 0.407120 0.284883 0.500000 
805 1 0.427073 0.285817 0.500000 
806 1 0.447013 0.286728 0.500000 
807 1 0.466942 0.287580 0.500000 
808 1 0.497230 0.271638 0.500000 
809 1 0.486867 0.288379 0.500000 
810 1 0.506793 0.289114 0.500000 
811 1 0.517157 0.272340 0.500000 
812 1 0.526724 0.289801 0.500000 
813 1 0.537086 0.272995 0.500000 
814 1 0.546664 0.290427 0.500000 
815 1 0.557028 0.273601 0.500000 
816 1 0.576977 0.274163 0.500000 
817 1 0.596934 0.274684 0.500000 
818 1 0.616897 0.275164 0.500000 
819 1 0.636863 0.275605 0.500000 
820 1 0.656839 0.276016 0.500000 
821 1 0.676826 0.276395 0.500000 
822 1 0.696818 0.276747 0.500000 
823 1 0.716813 0.277067 0.500000 
824 1 0.736814 0.277357 0.500000 
825 1 0.756820 0.277628 0.500000 
826 1 0.776827 0.277870 0.500000 
827 1 0.796837 0.278098 0.500000 
828 1 0.816845 0.278310 0.500000 
829 1 0.836857 0.278505 0.500000 
830 1 0.856871 0.278689 0.500000 
831 1 0.876889 0.278858 0.500000 
832 1 0.896908 0.279019 0.500000 
833 1 0.916925 0.279170 0.500000 
834 1 0.936951 0.279311 0.500000 
835 1 0.956982 0.279417 0.500000 
836 1 0.977036 0.279488 0.500000 
837 1 0.997089 0.279555 0.500000 
838 1 0.005284 0.301547 0.500000 
839 1 0.025288 0.302175 0.500000 
840 1 0.045299 0.302815 0.500000 
841 1 0.065313 0.303468 0.500000 
842 1 0.085370 0.304195 0.500000 
843 1 0.105425 0.304939 0.500000 
844 1 0.125488 0.305703 0.500000 
845 1 0.145558 0.306490 0.500000 
846 1 0.165634 0.307292 0.500000 
847 1 0.196272 0.291799 0.500000 
848 1 0.185715 0.308129 0.500000 
849 1 0.216354 0.292665 0.500000 
850 1 0.205796 0.308989 0.500000 
851 1 0.236436 0.293554 0.500000 
852 1 0.225881 0.309878 0.500000 
853 1 0.256515 0.294472 0.500000 
854 1 0.245965 0.310796 0.500000 
855 1 0.276582 0.295417 0.500000 
856 1 0.266048 0.311749 0.500000 
857 1 0.296640 0.296390 0.500000 
858 1 0.316691 0.297378 0.500000 
859 1 0.336720 0.298382 0.500000 
860 1 0.356737 0.299397 0.500000 
861 1 0.376741 0.300412 0.500000 
862 1 0.396717 0.301423 0.500000 
863 1 0.416675 0.302404 0.500000 
864 1 0.436615 0.303364 0.500000 
865 1 0.456550 0.304267 0.500000 
866 1 0.476481 0.305111 0.500000 
867 1 0.496411 0.305886 0.500000 
868 1 0.516343 0.306601 0.500000 
869 1 0.536286 0.307256 0.500000 
870 1 0.566613 0.291004 0.500000 
871 1 0.556240 0.307851 0.500000 
872 1 0.586573 0.291537 0.500000 
873 1 0.576204 0.308397 0.500000 
874 1 0.606540 0.292028 0.500000 
875 1 0.596176 0.308901 0.500000 
876 1 0.626520 0.292484 0.500000 
877 1 0.616160 0.309361 0.500000 
878 1 0.646505 0.292904 0.500000 
879 1 0.636157 0.309791 0.500000 
880 1 0.666496 0.293288 0.500000 
881 1 0.686493 0.293646 0.500000 