ITEM: TIMESTEP
900
ITEM: NUMBER OF ATOMS
2850
ITEM: BOX BOUNDS ss ss pp
-28.0536 28.3253 
-28.9988 28.9984 
-0.5 0.5 
ITEM: ATOMS id type xs ys zs
1 1 0.012661 0.000000 0.500000 
2 1 0.032688 0.000597 0.500000 
3 1 0.052715 0.001202 0.500000 
4 1 0.072742 0.001814 0.500000 
5 1 0.092767 0.002433 0.500000 
6 1 0.112794 0.003060 0.500000 
7 1 0.132817 0.003697 0.500000 
8 1 0.152841 0.004338 0.500000 
9 1 0.172861 0.004988 0.500000 
10 1 0.192879 0.005643 0.500000 
11 1 0.212895 0.006305 0.500000 
12 1 0.232906 0.006973 0.500000 
13 1 0.252912 0.007645 0.500000 
14 1 0.272914 0.008319 0.500000 
15 1 0.292911 0.008997 0.500000 
16 1 0.312901 0.009676 0.500000 
17 1 0.332885 0.010356 0.500000 
18 1 0.352861 0.011033 0.500000 
19 1 0.372830 0.011707 0.500000 
20 1 0.392791 0.012376 0.500000 
21 1 0.022340 0.017073 0.500000 
22 1 0.042369 0.017677 0.500000 
23 1 0.062397 0.018289 0.500000 
24 1 0.082426 0.018911 0.500000 
25 1 0.102455 0.019539 0.500000 
26 1 0.122484 0.020177 0.500000 
27 1 0.142511 0.020822 0.500000 
28 1 0.162536 0.021475 0.500000 
29 1 0.182559 0.022136 0.500000 
30 1 0.202579 0.022803 0.500000 
31 1 0.222596 0.023475 0.500000 
32 1 0.242610 0.024155 0.500000 
33 1 0.262618 0.024839 0.500000 
34 1 0.282622 0.025527 0.500000 
35 1 0.302619 0.026217 0.500000 
36 1 0.322610 0.026908 0.500000 
37 1 0.342593 0.027600 0.500000 
38 1 0.362570 0.028289 0.500000 
39 1 0.382537 0.028974 0.500000 
40 1 0.402497 0.029655 0.500000 
41 1 0.412744 0.013039 0.500000 
42 1 0.422448 0.030326 0.500000 
43 1 0.432688 0.013694 0.500000 
44 1 0.442390 0.030989 0.500000 
45 1 0.452624 0.014337 0.500000 
46 1 0.462324 0.031639 0.500000 
47 1 0.472553 0.014968 0.500000 
48 1 0.482250 0.032276 0.500000 
49 1 0.492474 0.015584 0.500000 
50 1 0.512388 0.016184 0.500000 
51 1 0.532295 0.016766 0.500000 
52 1 0.552198 0.017330 0.500000 
53 1 0.572095 0.017873 0.500000 
54 1 0.591989 0.018396 0.500000 
55 1 0.611880 0.018896 0.500000 
56 1 0.631769 0.019373 0.500000 
57 1 0.651657 0.019829 0.500000 
58 1 0.671546 0.020261 0.500000 
59 1 0.691436 0.020670 0.500000 
60 1 0.711328 0.021058 0.500000 
61 1 0.731222 0.021423 0.500000 
62 1 0.751120 0.021768 0.500000 
63 1 0.771021 0.022094 0.500000 
64 1 0.790927 0.022399 0.500000 
65 1 0.810837 0.022687 0.500000 
66 1 0.830751 0.022958 0.500000 
67 1 0.850671 0.023211 0.500000 
68 1 0.870595 0.023449 0.500000 
69 1 0.890525 0.023674 0.500000 
70 1 0.910459 0.023884 0.500000 
71 1 0.930398 0.024080 0.500000 
72 1 0.950341 0.024267 0.500000 
73 1 0.970290 0.024443 0.500000 
74 1 0.990243 0.024606 0.500000 
75 1 0.011983 0.033545 0.500000 
76 1 0.032014 0.034148 0.500000 
77 1 0.021650 0.050615 0.500000 
78 1 0.052044 0.034760 0.500000 
79 1 0.041680 0.051227 0.500000 
80 1 0.072075 0.035381 0.500000 
81 1 0.061715 0.051847 0.500000 
82 1 0.092107 0.036012 0.500000 
83 1 0.081775 0.052504 0.500000 
84 1 0.112138 0.036650 0.500000 
85 1 0.132168 0.037297 0.500000 
86 1 0.152197 0.037952 0.500000 
87 1 0.172226 0.038617 0.500000 
88 1 0.192251 0.039288 0.500000 
89 1 0.212274 0.039967 0.500000 
90 1 0.232293 0.040654 0.500000 
91 1 0.252309 0.041345 0.500000 
92 1 0.272318 0.042042 0.500000 
93 1 0.292324 0.042743 0.500000 
94 1 0.312323 0.043447 0.500000 
95 1 0.332314 0.044150 0.500000 
96 1 0.352297 0.044856 0.500000 
97 1 0.372273 0.045557 0.500000 
98 1 0.392240 0.046254 0.500000 
99 1 0.412198 0.046944 0.500000 
100 1 0.432147 0.047626 0.500000 
101 1 0.452087 0.048297 0.500000 
102 1 0.472018 0.048954 0.500000 
103 1 0.502167 0.032896 0.500000 
104 1 0.491940 0.049595 0.500000 
105 1 0.522078 0.033498 0.500000 
106 1 0.511855 0.050220 0.500000 
107 1 0.541983 0.034081 0.500000 
108 1 0.531762 0.050823 0.500000 
109 1 0.561882 0.034643 0.500000 
110 1 0.551663 0.051406 0.500000 
111 1 0.581777 0.035184 0.500000 
112 1 0.571560 0.051966 0.500000 
113 1 0.601668 0.035702 0.500000 
114 1 0.591452 0.052503 0.500000 
115 1 0.621558 0.036195 0.500000 
116 1 0.641446 0.036666 0.500000 
117 1 0.661334 0.037110 0.500000 
118 1 0.681223 0.037533 0.500000 
119 1 0.701115 0.037931 0.500000 
120 1 0.721007 0.038307 0.500000 
121 1 0.740905 0.038660 0.500000 
122 1 0.760806 0.038993 0.500000 
123 1 0.780711 0.039305 0.500000 
124 1 0.800620 0.039597 0.500000 
125 1 0.820536 0.039873 0.500000 
126 1 0.840456 0.040130 0.500000 
127 1 0.860382 0.040369 0.500000 
128 1 0.880312 0.040595 0.500000 
129 1 0.900248 0.040807 0.500000 
130 1 0.920188 0.041005 0.500000 
131 1 0.940134 0.041192 0.500000 
132 1 0.960084 0.041368 0.500000 
133 1 0.980040 0.041531 0.500000 
134 1 1.000000 0.041686 0.500000 
135 1 0.011275 0.067077 0.500000 
136 1 0.031308 0.067688 0.500000 
137 1 0.051342 0.068307 0.500000 
138 1 0.071376 0.068936 0.500000 
139 1 0.091462 0.069593 0.500000 
140 1 0.101835 0.053149 0.500000 
141 1 0.111538 0.070297 0.500000 
142 1 0.121888 0.053834 0.500000 
143 1 0.131610 0.071018 0.500000 
144 1 0.141942 0.054511 0.500000 
145 1 0.151668 0.071702 0.500000 
146 1 0.161982 0.055160 0.500000 
147 1 0.171681 0.072379 0.500000 
148 1 0.181978 0.055812 0.500000 
149 1 0.201978 0.056485 0.500000 
150 1 0.222028 0.057193 0.500000 
151 1 0.242077 0.057906 0.500000 
152 1 0.262091 0.058623 0.500000 
153 1 0.282098 0.059330 0.500000 
154 1 0.302112 0.060070 0.500000 
155 1 0.322106 0.060806 0.500000 
156 1 0.342087 0.061497 0.500000 
157 1 0.362081 0.062193 0.500000 
158 1 0.382066 0.062934 0.500000 
159 1 0.402027 0.063662 0.500000 
160 1 0.421975 0.064367 0.500000 
161 1 0.441902 0.065076 0.500000 
162 1 0.461805 0.065743 0.500000 
163 1 0.481715 0.066385 0.500000 
164 1 0.501625 0.067044 0.500000 
165 1 0.521524 0.067661 0.500000 
166 1 0.541420 0.068250 0.500000 
167 1 0.561321 0.068848 0.500000 
168 1 0.581234 0.069422 0.500000 
169 1 0.601137 0.069972 0.500000 
170 1 0.611341 0.053013 0.500000 
171 1 0.621018 0.070482 0.500000 
172 1 0.631230 0.053499 0.500000 
173 1 0.640892 0.070953 0.500000 
174 1 0.651117 0.053960 0.500000 
175 1 0.671006 0.054396 0.500000 
176 1 0.660787 0.071362 0.500000 
177 1 0.690897 0.054806 0.500000 
178 1 0.680697 0.071738 0.500000 
179 1 0.710789 0.055192 0.500000 
180 1 0.700598 0.072116 0.500000 
181 1 0.730685 0.055554 0.500000 
182 1 0.720489 0.072479 0.500000 
183 1 0.750586 0.055894 0.500000 
184 1 0.770490 0.056213 0.500000 
185 1 0.790400 0.056511 0.500000 
186 1 0.810316 0.056789 0.500000 
187 1 0.830238 0.057049 0.500000 
188 1 0.850164 0.057294 0.500000 
189 1 0.870095 0.057522 0.500000 
190 1 0.890032 0.057734 0.500000 
191 1 0.909975 0.057934 0.500000 
192 1 0.929922 0.058120 0.500000 
193 1 0.949875 0.058294 0.500000 
194 1 0.969833 0.058458 0.500000 
195 1 0.989796 0.058613 0.500000 
196 1 0.020924 0.084144 0.500000 
197 1 0.040959 0.084763 0.500000 
198 1 0.060994 0.085390 0.500000 
199 1 0.081042 0.086025 0.500000 
200 1 0.101101 0.086707 0.500000 
201 1 0.121194 0.087458 0.500000 
202 1 0.141287 0.088207 0.500000 
203 1 0.161347 0.088916 0.500000 
204 1 0.191691 0.073030 0.500000 
205 1 0.181396 0.089578 0.500000 
206 1 0.211744 0.073690 0.500000 
207 1 0.201436 0.090225 0.500000 
208 1 0.221448 0.090933 0.500000 
209 1 0.231804 0.074428 0.500000 
210 1 0.241483 0.091679 0.500000 
211 1 0.251821 0.075179 0.500000 
212 1 0.261532 0.092438 0.500000 
213 1 0.271807 0.075895 0.500000 
214 1 0.291812 0.076608 0.500000 
215 1 0.311836 0.077389 0.500000 
216 1 0.331840 0.078155 0.500000 
217 1 0.351821 0.078851 0.500000 
218 1 0.371809 0.079580 0.500000 
219 1 0.391799 0.080369 0.500000 
220 1 0.411748 0.081121 0.500000 
221 1 0.431665 0.081846 0.500000 
222 1 0.451577 0.082534 0.500000 
223 1 0.471479 0.083176 0.500000 
224 1 0.491366 0.083843 0.500000 
225 1 0.511258 0.084509 0.500000 
226 1 0.531141 0.085127 0.500000 
227 1 0.551037 0.085719 0.500000 
228 1 0.570966 0.086308 0.500000 
229 1 0.590882 0.086889 0.500000 
230 1 0.610779 0.087412 0.500000 
231 1 0.630670 0.087892 0.500000 
232 1 0.650563 0.088330 0.500000 
233 1 0.670440 0.088715 0.500000 
234 1 0.690318 0.089075 0.500000 
235 1 0.710228 0.089435 0.500000 
236 1 0.730154 0.089780 0.500000 
237 1 0.740383 0.072818 0.500000 
238 1 0.750081 0.090072 0.500000 
239 1 0.760299 0.073126 0.500000 
240 1 0.769977 0.090403 0.500000 
241 1 0.780221 0.073476 0.500000 
242 1 0.789893 0.090725 0.500000 
243 1 0.800161 0.073789 0.500000 
244 1 0.809842 0.090996 0.500000 
245 1 0.820119 0.074052 0.500000 
246 1 0.829799 0.091263 0.500000 
247 1 0.840053 0.074303 0.500000 
248 1 0.849737 0.091536 0.500000 
249 1 0.859941 0.074524 0.500000 
250 1 0.869652 0.091753 0.500000 
251 1 0.879825 0.074707 0.500000 
252 1 0.889586 0.091827 0.500000 
253 1 0.899778 0.074829 0.500000 
254 1 0.909539 0.091891 0.500000 
255 1 0.919778 0.075002 0.500000 
256 1 0.929486 0.092089 0.500000 
257 1 0.939729 0.075210 0.500000 
258 1 0.949407 0.092323 0.500000 
259 1 0.959621 0.075390 0.500000 
260 1 0.979588 0.075542 0.500000 
261 1 0.999557 0.075685 0.500000 
262 1 0.010532 0.100598 0.500000 
263 1 0.030566 0.101214 0.500000 
264 1 0.050602 0.101839 0.500000 
265 1 0.070640 0.102476 0.500000 
266 1 0.090706 0.103151 0.500000 
267 1 0.110763 0.103877 0.500000 
268 1 0.130842 0.104655 0.500000 
269 1 0.150943 0.105385 0.500000 
270 1 0.171033 0.106076 0.500000 
271 1 0.191077 0.106762 0.500000 
272 1 0.211078 0.107477 0.500000 
273 1 0.231103 0.108185 0.500000 
274 1 0.251158 0.108917 0.500000 
275 1 0.271217 0.109689 0.500000 
276 1 0.281551 0.093165 0.500000 
277 1 0.291235 0.110502 0.500000 
278 1 0.301531 0.093928 0.500000 
279 1 0.311237 0.111284 0.500000 
280 1 0.321534 0.094728 0.500000 
281 1 0.331259 0.112052 0.500000 
282 1 0.341570 0.095501 0.500000 
283 1 0.361565 0.096242 0.500000 
284 1 0.381511 0.097017 0.500000 
285 1 0.401456 0.097816 0.500000 
286 1 0.421397 0.098575 0.500000 
287 1 0.441326 0.099283 0.500000 
288 1 0.461237 0.099965 0.500000 
289 1 0.481118 0.100641 0.500000 
290 1 0.500993 0.101310 0.500000 
291 1 0.520876 0.101967 0.500000 
292 1 0.540772 0.102573 0.500000 
293 1 0.560672 0.103151 0.500000 
294 1 0.580563 0.103755 0.500000 
295 1 0.600461 0.104305 0.500000 
296 1 0.620363 0.104791 0.500000 
297 1 0.640266 0.105247 0.500000 
298 1 0.660174 0.105685 0.500000 
299 1 0.680079 0.106069 0.500000 
300 1 0.699973 0.106416 0.500000 
301 1 0.719895 0.106760 0.500000 
302 1 0.739862 0.107056 0.500000 
303 1 0.759807 0.107355 0.500000 
304 1 0.779731 0.107640 0.500000 
305 1 0.799639 0.107918 0.500000 
306 1 0.819540 0.108184 0.500000 
307 1 0.839455 0.108467 0.500000 
308 1 0.859412 0.108730 0.500000 
309 1 0.879400 0.108890 0.500000 
310 1 0.899345 0.108934 0.500000 
311 1 0.919240 0.109025 0.500000 
312 1 0.939171 0.109215 0.500000 
313 1 0.969375 0.092475 0.500000 
314 1 0.959160 0.109410 0.500000 
315 1 0.989349 0.092617 0.500000 
316 1 0.979136 0.109550 0.500000 
317 1 0.999117 0.109681 0.500000 
318 1 0.020165 0.117663 0.500000 
319 1 0.040201 0.118287 0.500000 
320 1 0.060239 0.118920 0.500000 
321 1 0.080290 0.119582 0.500000 
322 1 0.100358 0.120307 0.500000 
323 1 0.120429 0.121078 0.500000 
324 1 0.140524 0.121814 0.500000 
325 1 0.160610 0.122528 0.500000 
326 1 0.180676 0.123252 0.500000 
327 1 0.200715 0.123997 0.500000 
328 1 0.220761 0.124723 0.500000 
329 1 0.240801 0.125448 0.500000 
330 1 0.260825 0.126199 0.500000 
331 1 0.280840 0.127006 0.500000 
332 1 0.300875 0.127813 0.500000 
333 1 0.320894 0.128589 0.500000 
334 1 0.340871 0.129394 0.500000 
335 1 0.351271 0.112850 0.500000 
336 1 0.360835 0.130228 0.500000 
337 1 0.371225 0.113656 0.500000 
338 1 0.380806 0.131037 0.500000 
339 1 0.391155 0.114436 0.500000 
340 1 0.400757 0.131831 0.500000 
341 1 0.411104 0.115210 0.500000 
342 1 0.420671 0.132623 0.500000 
343 1 0.431046 0.115978 0.500000 
344 1 0.450950 0.116709 0.500000 
345 1 0.470837 0.117402 0.500000 
346 1 0.490726 0.118086 0.500000 
347 1 0.510598 0.118768 0.500000 
348 1 0.530476 0.119380 0.500000 
349 1 0.550365 0.119962 0.500000 
350 1 0.570233 0.120578 0.500000 
351 1 0.590098 0.121162 0.500000 
352 1 0.609973 0.121694 0.500000 
353 1 0.629866 0.122176 0.500000 
354 1 0.649777 0.122613 0.500000 
355 1 0.669725 0.123008 0.500000 
356 1 0.689682 0.123401 0.500000 
357 1 0.709618 0.123747 0.500000 
358 1 0.729576 0.124026 0.500000 
359 1 0.749571 0.124308 0.500000 
360 1 0.769570 0.124581 0.500000 
361 1 0.789528 0.124852 0.500000 
362 1 0.809428 0.125128 0.500000 
363 1 0.829285 0.125405 0.500000 
364 1 0.849178 0.125658 0.500000 
365 1 0.869130 0.125857 0.500000 
366 1 0.889122 0.125987 0.500000 
367 1 0.909059 0.126080 0.500000 
368 1 0.928989 0.126179 0.500000 
369 1 0.948940 0.126349 0.500000 
370 1 0.968919 0.126487 0.500000 
371 1 0.988905 0.126616 0.500000 
372 1 0.009754 0.134110 0.500000 
373 1 0.029790 0.134729 0.500000 
374 1 0.019367 0.151171 0.500000 
375 1 0.049825 0.135360 0.500000 
376 1 0.039403 0.151799 0.500000 
377 1 0.069865 0.136003 0.500000 
378 1 0.089935 0.136721 0.500000 
379 1 0.109992 0.137473 0.500000 
380 1 0.130073 0.138220 0.500000 
381 1 0.150171 0.138967 0.500000 
382 1 0.170268 0.139710 0.500000 
383 1 0.190334 0.140474 0.500000 
384 1 0.210381 0.141223 0.500000 
385 1 0.230416 0.141974 0.500000 
386 1 0.250445 0.142736 0.500000 
387 1 0.270460 0.143517 0.500000 
388 1 0.290479 0.144299 0.500000 
389 1 0.310503 0.145114 0.500000 
390 1 0.330496 0.145944 0.500000 
391 1 0.350471 0.146786 0.500000 
392 1 0.370435 0.147614 0.500000 
393 1 0.390369 0.148437 0.500000 
394 1 0.410285 0.149271 0.500000 
395 1 0.440582 0.133398 0.500000 
396 1 0.430205 0.150062 0.500000 
397 1 0.460498 0.134123 0.500000 
398 1 0.450132 0.150811 0.500000 
399 1 0.480394 0.134817 0.500000 
400 1 0.470041 0.151564 0.500000 
401 1 0.500264 0.135538 0.500000 
402 1 0.489914 0.152313 0.500000 
403 1 0.520148 0.136206 0.500000 
404 1 0.540031 0.136792 0.500000 
405 1 0.559897 0.137389 0.500000 
406 1 0.579762 0.138002 0.500000 
407 1 0.599622 0.138596 0.500000 
408 1 0.619489 0.139111 0.500000 
409 1 0.639376 0.139560 0.500000 
410 1 0.659299 0.139946 0.500000 
411 1 0.679253 0.140323 0.500000 
412 1 0.699241 0.140699 0.500000 
413 1 0.719226 0.141000 0.500000 
414 1 0.739212 0.141239 0.500000 
415 1 0.759213 0.141510 0.500000 
416 1 0.779224 0.141786 0.500000 
417 1 0.799202 0.142064 0.500000 
418 1 0.819124 0.142359 0.500000 
419 1 0.839012 0.142591 0.500000 
420 1 0.858913 0.142819 0.500000 
421 1 0.878841 0.142973 0.500000 
422 1 0.898770 0.143159 0.500000 
423 1 0.918705 0.143219 0.500000 
424 1 0.938689 0.143315 0.500000 
425 1 0.958701 0.143428 0.500000 
426 1 0.978689 0.143555 0.500000 
427 1 0.998682 0.143674 0.500000 
428 1 0.008938 0.167610 0.500000 
429 1 0.028972 0.168234 0.500000 
430 1 0.049008 0.168868 0.500000 
431 1 0.059442 0.152437 0.500000 
432 1 0.069047 0.169517 0.500000 
433 1 0.079523 0.153140 0.500000 
434 1 0.089134 0.170288 0.500000 
435 1 0.099576 0.153885 0.500000 
436 1 0.109213 0.171052 0.500000 
437 1 0.119625 0.154623 0.500000 
438 1 0.139707 0.155378 0.500000 
439 1 0.129283 0.171802 0.500000 
440 1 0.159813 0.156149 0.500000 
441 1 0.179899 0.156932 0.500000 
442 1 0.199959 0.157690 0.500000 
443 1 0.220001 0.158454 0.500000 
444 1 0.240032 0.159235 0.500000 
445 1 0.260056 0.160021 0.500000 
446 1 0.280087 0.160806 0.500000 
447 1 0.300118 0.161623 0.500000 
448 1 0.320133 0.162489 0.500000 
449 1 0.340122 0.163351 0.500000 
450 1 0.360096 0.164191 0.500000 
451 1 0.380031 0.165049 0.500000 
452 1 0.399929 0.165892 0.500000 
453 1 0.419848 0.166708 0.500000 
454 1 0.439777 0.167515 0.500000 
455 1 0.459677 0.168316 0.500000 
456 1 0.479570 0.169103 0.500000 
457 1 0.499475 0.169830 0.500000 
458 1 0.509809 0.153005 0.500000 
459 1 0.519364 0.170510 0.500000 
460 1 0.529723 0.153659 0.500000 
461 1 0.539254 0.171154 0.500000 
462 1 0.549605 0.154276 0.500000 
463 1 0.559139 0.171759 0.500000 
464 1 0.569463 0.154862 0.500000 
465 1 0.579016 0.172346 0.500000 
466 1 0.589338 0.155458 0.500000 
467 1 0.609242 0.156026 0.500000 
468 1 0.629126 0.156516 0.500000 
469 1 0.648998 0.156912 0.500000 
470 1 0.668893 0.157271 0.500000 
471 1 0.688852 0.157608 0.500000 
472 1 0.708844 0.157953 0.500000 
473 1 0.728829 0.158218 0.500000 
474 1 0.748791 0.158453 0.500000 
475 1 0.768802 0.158704 0.500000 
476 1 0.788808 0.158995 0.500000 
477 1 0.808788 0.159278 0.500000 
478 1 0.828762 0.159539 0.500000 
479 1 0.848701 0.159756 0.500000 
480 1 0.868644 0.159955 0.500000 
481 1 0.888556 0.160154 0.500000 
482 1 0.908508 0.160308 0.500000 
483 1 0.928464 0.160301 0.500000 
484 1 0.948477 0.160370 0.500000 
485 1 0.968470 0.160496 0.500000 
486 1 0.988467 0.160611 0.500000 
487 1 0.018532 0.184668 0.500000 
488 1 0.038566 0.185299 0.500000 
489 1 0.058602 0.185942 0.500000 
490 1 0.078679 0.186662 0.500000 
491 1 0.098771 0.187460 0.500000 
492 1 0.118857 0.188241 0.500000 
493 1 0.138902 0.189023 0.500000 
494 1 0.149350 0.172580 0.500000 
495 1 0.158957 0.189785 0.500000 
496 1 0.169429 0.173362 0.500000 
497 1 0.179025 0.190560 0.500000 
498 1 0.189506 0.174137 0.500000 
499 1 0.199075 0.191362 0.500000 
500 1 0.209555 0.174910 0.500000 
501 1 0.219104 0.192179 0.500000 
502 1 0.229589 0.175703 0.500000 
503 1 0.249638 0.176504 0.500000 
504 1 0.269684 0.177307 0.500000 
505 1 0.289710 0.178115 0.500000 
506 1 0.309714 0.178993 0.500000 
507 1 0.329718 0.179891 0.500000 
508 1 0.349709 0.180768 0.500000 
509 1 0.369649 0.181654 0.500000 
510 1 0.389562 0.182540 0.500000 
511 1 0.409466 0.183374 0.500000 
512 1 0.429369 0.184200 0.500000 
513 1 0.449281 0.185052 0.500000 
514 1 0.469184 0.185873 0.500000 
515 1 0.489068 0.186628 0.500000 
516 1 0.508942 0.187348 0.500000 
517 1 0.528832 0.188000 0.500000 
518 1 0.548714 0.188637 0.500000 
519 1 0.568582 0.189248 0.500000 
520 1 0.588480 0.189815 0.500000 
521 1 0.598925 0.172912 0.500000 
522 1 0.608408 0.190375 0.500000 
523 1 0.618849 0.173456 0.500000 
524 1 0.628354 0.190870 0.500000 
525 1 0.638750 0.173899 0.500000 
526 1 0.648275 0.191268 0.500000 
527 1 0.658618 0.174264 0.500000 
528 1 0.668179 0.191569 0.500000 
529 1 0.678512 0.174565 0.500000 
530 1 0.688074 0.191842 0.500000 
531 1 0.698451 0.174875 0.500000 
532 1 0.718442 0.175185 0.500000 
533 1 0.738412 0.175469 0.500000 
534 1 0.758388 0.175657 0.500000 
535 1 0.778385 0.175918 0.500000 
536 1 0.798394 0.176197 0.500000 
537 1 0.818402 0.176462 0.500000 
538 1 0.838419 0.176715 0.500000 
539 1 0.858419 0.176912 0.500000 
540 1 0.878389 0.177118 0.500000 
541 1 0.898350 0.177260 0.500000 
542 1 0.918340 0.177360 0.500000 
543 1 0.938275 0.177356 0.500000 
544 1 0.958249 0.177440 0.500000 
545 1 0.978251 0.177553 0.500000 
546 1 0.998258 0.177659 0.500000 
547 1 0.008083 0.201103 0.500000 
548 1 0.028113 0.201727 0.500000 
549 1 0.048147 0.202367 0.500000 
550 1 0.068185 0.203017 0.500000 
551 1 0.088288 0.203837 0.500000 
552 1 0.108387 0.204646 0.500000 
553 1 0.128449 0.205462 0.500000 
554 1 0.148484 0.206233 0.500000 
555 1 0.168522 0.206995 0.500000 
556 1 0.188572 0.207783 0.500000 
557 1 0.208648 0.208619 0.500000 
558 1 0.239163 0.192966 0.500000 
559 1 0.228742 0.209424 0.500000 
560 1 0.259238 0.193769 0.500000 
561 1 0.248818 0.210224 0.500000 
562 1 0.279289 0.194604 0.500000 
563 1 0.268856 0.211058 0.500000 
564 1 0.299281 0.195476 0.500000 
565 1 0.288884 0.211967 0.500000 
566 1 0.319280 0.196372 0.500000 
567 1 0.339277 0.197297 0.500000 
568 1 0.359238 0.198252 0.500000 
569 1 0.379154 0.199177 0.500000 
570 1 0.399065 0.200039 0.500000 
571 1 0.418996 0.200898 0.500000 
572 1 0.438900 0.201758 0.500000 
573 1 0.458791 0.202609 0.500000 
574 1 0.478679 0.203425 0.500000 
575 1 0.498561 0.204178 0.500000 
576 1 0.518457 0.204842 0.500000 
577 1 0.538329 0.205507 0.500000 
578 1 0.558201 0.206156 0.500000 
579 1 0.578082 0.206731 0.500000 
580 1 0.597967 0.207280 0.500000 
581 1 0.617914 0.207791 0.500000 
582 1 0.637892 0.208246 0.500000 
583 1 0.657838 0.208585 0.500000 
584 1 0.677743 0.208847 0.500000 
585 1 0.708020 0.192092 0.500000 
586 1 0.697676 0.209038 0.500000 
587 1 0.728017 0.192398 0.500000 
588 1 0.717635 0.209270 0.500000 
589 1 0.748025 0.192666 0.500000 
590 1 0.737641 0.209569 0.500000 
591 1 0.768005 0.192883 0.500000 
592 1 0.757659 0.209851 0.500000 
593 1 0.788009 0.193120 0.500000 
594 1 0.777680 0.210077 0.500000 
595 1 0.808017 0.193392 0.500000 
596 1 0.797715 0.210350 0.500000 
597 1 0.828053 0.193649 0.500000 
598 1 0.817741 0.210600 0.500000 
599 1 0.848094 0.193879 0.500000 
600 1 0.837756 0.210834 0.500000 
601 1 0.868105 0.194048 0.500000 
602 1 0.857774 0.210981 0.500000 
603 1 0.888078 0.194189 0.500000 
604 1 0.877768 0.211133 0.500000 
605 1 0.908078 0.194281 0.500000 
606 1 0.897780 0.211186 0.500000 
607 1 0.928051 0.194401 0.500000 
608 1 0.917793 0.211342 0.500000 
609 1 0.948021 0.194385 0.500000 
610 1 0.937809 0.211396 0.500000 
611 1 0.957807 0.211443 0.500000 
612 1 0.968031 0.194496 0.500000 
613 1 0.977825 0.211543 0.500000 
614 1 0.988043 0.194599 0.500000 
615 1 0.997847 0.211634 0.500000 
616 1 0.017654 0.218157 0.500000 
617 1 0.037684 0.218790 0.500000 
618 1 0.057718 0.219436 0.500000 
619 1 0.077804 0.220195 0.500000 
620 1 0.097885 0.221014 0.500000 
621 1 0.117948 0.221858 0.500000 
622 1 0.137998 0.222675 0.500000 
623 1 0.158048 0.223452 0.500000 
624 1 0.178115 0.224230 0.500000 
625 1 0.198196 0.225005 0.500000 
626 1 0.218300 0.225830 0.500000 
627 1 0.238386 0.226655 0.500000 
628 1 0.258442 0.227521 0.500000 
629 1 0.278484 0.228429 0.500000 
630 1 0.298524 0.229392 0.500000 
631 1 0.308896 0.212871 0.500000 
632 1 0.318536 0.230348 0.500000 
633 1 0.328887 0.213808 0.500000 
634 1 0.338502 0.231345 0.500000 
635 1 0.348842 0.214795 0.500000 
636 1 0.358465 0.232330 0.500000 
637 1 0.368787 0.215771 0.500000 
638 1 0.388742 0.216675 0.500000 
639 1 0.408666 0.217545 0.500000 
640 1 0.428566 0.218461 0.500000 
641 1 0.448461 0.219355 0.500000 
642 1 0.468352 0.220211 0.500000 
643 1 0.488254 0.221019 0.500000 
644 1 0.508152 0.221710 0.500000 
645 1 0.528015 0.222383 0.500000 
646 1 0.547889 0.223021 0.500000 
647 1 0.567803 0.223640 0.500000 
648 1 0.587706 0.224233 0.500000 
649 1 0.607602 0.224717 0.500000 
650 1 0.627543 0.225154 0.500000 
651 1 0.647526 0.225553 0.500000 
652 1 0.667482 0.225847 0.500000 
653 1 0.687420 0.226030 0.500000 
654 1 0.707353 0.226216 0.500000 
655 1 0.727305 0.226441 0.500000 
656 1 0.747316 0.226743 0.500000 
657 1 0.767335 0.227024 0.500000 
658 1 0.787354 0.227265 0.500000 
659 1 0.807393 0.227550 0.500000 
660 1 0.827436 0.227775 0.500000 
661 1 0.847466 0.227921 0.500000 
662 1 0.867488 0.228043 0.500000 
663 1 0.887546 0.228156 0.500000 
664 1 0.907545 0.228249 0.500000 
665 1 0.927547 0.228375 0.500000 
666 1 0.947580 0.228392 0.500000 
667 1 0.967605 0.228489 0.500000 
668 1 0.987634 0.228577 0.500000 
669 1 0.007189 0.234587 0.500000 
670 1 0.027214 0.235215 0.500000 
671 1 0.047243 0.235854 0.500000 
672 1 0.067275 0.236508 0.500000 
673 1 0.087371 0.237346 0.500000 
674 1 0.107431 0.238209 0.500000 
675 1 0.127500 0.239065 0.500000 
676 1 0.147576 0.239879 0.500000 
677 1 0.167666 0.240671 0.500000 
678 1 0.187750 0.241435 0.500000 
679 1 0.207825 0.242222 0.500000 
680 1 0.227910 0.243058 0.500000 
681 1 0.247988 0.243954 0.500000 
682 1 0.268043 0.244889 0.500000 
683 1 0.288087 0.245871 0.500000 
684 1 0.308130 0.246854 0.500000 
685 1 0.328157 0.247871 0.500000 
686 1 0.348138 0.248899 0.500000 
687 1 0.378436 0.233264 0.500000 
688 1 0.368083 0.249873 0.500000 
689 1 0.398366 0.234202 0.500000 
690 1 0.388028 0.250831 0.500000 
691 1 0.418263 0.235134 0.500000 
692 1 0.407958 0.251808 0.500000 
693 1 0.438168 0.236058 0.500000 
694 1 0.427874 0.252749 0.500000 
695 1 0.458068 0.236972 0.500000 
696 1 0.477945 0.237825 0.500000 
697 1 0.497831 0.238560 0.500000 
698 1 0.517701 0.239244 0.500000 
699 1 0.537583 0.239902 0.500000 
700 1 0.557482 0.240521 0.500000 
701 1 0.577420 0.241121 0.500000 
702 1 0.597367 0.241674 0.500000 
703 1 0.617284 0.242105 0.500000 
704 1 0.637231 0.242453 0.500000 
705 1 0.657219 0.242791 0.500000 
706 1 0.677187 0.243039 0.500000 
707 1 0.697152 0.243226 0.500000 
708 1 0.717097 0.243430 0.500000 
709 1 0.737040 0.243631 0.500000 
710 1 0.757039 0.243921 0.500000 
711 1 0.777053 0.244197 0.500000 
712 1 0.797047 0.244456 0.500000 
713 1 0.817070 0.244662 0.500000 
714 1 0.837135 0.244834 0.500000 
715 1 0.857194 0.244970 0.500000 
716 1 0.877238 0.245108 0.500000 
717 1 0.897274 0.245235 0.500000 
718 1 0.917266 0.245318 0.500000 
719 1 0.937309 0.245388 0.500000 
720 1 0.957383 0.245436 0.500000 
721 1 0.977417 0.245522 0.500000 
722 1 0.997455 0.245600 0.500000 
723 1 0.016737 0.251640 0.500000 
724 1 0.006256 0.268068 0.500000 
725 1 0.036760 0.252274 0.500000 
726 1 0.026272 0.268696 0.500000 
727 1 0.056787 0.252921 0.500000 
728 1 0.046292 0.269335 0.500000 
729 1 0.076850 0.253651 0.500000 
730 1 0.066319 0.269991 0.500000 
731 1 0.096919 0.254529 0.500000 
732 1 0.086387 0.270849 0.500000 
733 1 0.117005 0.255392 0.500000 
734 1 0.137117 0.256253 0.500000 
735 1 0.157217 0.257064 0.500000 
736 1 0.177294 0.257867 0.500000 
737 1 0.197369 0.258647 0.500000 
738 1 0.217454 0.259476 0.500000 
739 1 0.237520 0.260366 0.500000 
740 1 0.257584 0.261336 0.500000 
741 1 0.277642 0.262315 0.500000 
742 1 0.297726 0.263313 0.500000 
743 1 0.317773 0.264340 0.500000 
744 1 0.337758 0.265433 0.500000 
745 1 0.357743 0.266460 0.500000 
746 1 0.377709 0.267450 0.500000 
747 1 0.397640 0.268461 0.500000 
748 1 0.417557 0.269443 0.500000 
749 1 0.437441 0.270405 0.500000 
750 1 0.447774 0.253684 0.500000 
751 1 0.457339 0.271351 0.500000 
752 1 0.467652 0.254588 0.500000 
753 1 0.477250 0.272234 0.500000 
754 1 0.487543 0.255394 0.500000 
755 1 0.507413 0.256132 0.500000 
756 1 0.527278 0.256798 0.500000 
757 1 0.547168 0.257468 0.500000 
758 1 0.567087 0.258040 0.500000 
759 1 0.587019 0.258561 0.500000 
760 1 0.606978 0.259056 0.500000 
761 1 0.626943 0.259425 0.500000 
762 1 0.646906 0.259725 0.500000 
763 1 0.666891 0.260043 0.500000 
764 1 0.686881 0.260268 0.500000 
765 1 0.706868 0.260477 0.500000 
766 1 0.726844 0.260641 0.500000 
767 1 0.746782 0.260819 0.500000 
768 1 0.766777 0.261086 0.500000 
769 1 0.786812 0.261370 0.500000 
770 1 0.806827 0.261573 0.500000 
771 1 0.826846 0.261722 0.500000 
772 1 0.846884 0.261887 0.500000 
773 1 0.866935 0.262044 0.500000 
774 1 0.886976 0.262192 0.500000 
775 1 0.907005 0.262317 0.500000 
776 1 0.927091 0.262322 0.500000 
777 1 0.947159 0.262387 0.500000 
778 1 0.967200 0.262468 0.500000 
779 1 0.987245 0.262544 0.500000 
780 1 0.015779 0.285121 0.500000 
781 1 0.035792 0.285753 0.500000 
782 1 0.055810 0.286400 0.500000 
783 1 0.075850 0.287169 0.500000 
784 1 0.095921 0.288020 0.500000 
785 1 0.106458 0.271696 0.500000 
786 1 0.115991 0.288857 0.500000 
787 1 0.126562 0.272552 0.500000 
788 1 0.136111 0.289701 0.500000 
789 1 0.146698 0.273404 0.500000 
790 1 0.156234 0.290544 0.500000 
791 1 0.166794 0.274229 0.500000 
792 1 0.176343 0.291375 0.500000 
793 1 0.186897 0.275051 0.500000 
794 1 0.206975 0.275887 0.500000 
795 1 0.227035 0.276781 0.500000 
796 1 0.247081 0.277742 0.500000 
797 1 0.267172 0.278727 0.500000 
798 1 0.287274 0.279723 0.500000 
799 1 0.307331 0.280790 0.500000 
800 1 0.327346 0.281895 0.500000 
801 1 0.347380 0.282951 0.500000 
802 1 0.367380 0.284009 0.500000 
803 1 0.387336 0.285073 0.500000 
804 1 0.407254 0.286111 0.500000 
805 1 0.427170 0.287126 0.500000 
806 1 0.447074 0.288106 0.500000 
807 1 0.466979 0.289047 0.500000 
808 1 0.497146 0.273029 0.500000 
809 1 0.486877 0.289915 0.500000 
810 1 0.506773 0.290667 0.500000 
811 1 0.517014 0.273723 0.500000 
812 1 0.526662 0.291354 0.500000 
813 1 0.536878 0.274385 0.500000 
814 1 0.546571 0.291961 0.500000 
815 1 0.556810 0.275021 0.500000 
816 1 0.576730 0.275587 0.500000 
817 1 0.596651 0.276026 0.500000 
818 1 0.616620 0.276432 0.500000 
819 1 0.636592 0.276736 0.500000 
820 1 0.656573 0.277001 0.500000 
821 1 0.676596 0.277298 0.500000 
822 1 0.696599 0.277531 0.500000 
823 1 0.716594 0.277693 0.500000 
824 1 0.736561 0.277831 0.500000 
825 1 0.756526 0.277991 0.500000 
826 1 0.776527 0.278237 0.500000 
827 1 0.796539 0.278502 0.500000 
828 1 0.816557 0.278644 0.500000 
829 1 0.836590 0.278802 0.500000 
830 1 0.856656 0.278966 0.500000 
831 1 0.876722 0.279078 0.500000 
832 1 0.896744 0.279263 0.500000 
833 1 0.916835 0.279330 0.500000 
834 1 0.936898 0.279367 0.500000 
835 1 0.956982 0.279417 0.500000 
836 1 0.977036 0.279488 0.500000 
837 1 0.997089 0.279555 0.500000 
838 1 0.005284 0.301547 0.500000 
839 1 0.025288 0.302175 0.500000 
840 1 0.045299 0.302815 0.500000 
841 1 0.065313 0.303468 0.500000 
842 1 0.085380 0.304326 0.500000 
843 1 0.105427 0.305190 0.500000 
844 1 0.125499 0.306000 0.500000 
845 1 0.145616 0.306839 0.500000 
846 1 0.165721 0.307678 0.500000 
847 1 0.196439 0.292263 0.500000 
848 1 0.185832 0.308572 0.500000 
849 1 0.216510 0.293142 0.500000 
850 1 0.205935 0.309478 0.500000 
851 1 0.236586 0.294095 0.500000 
852 1 0.226024 0.310386 0.500000 
853 1 0.256682 0.295086 0.500000 
854 1 0.246115 0.311371 0.500000 
855 1 0.276776 0.296097 0.500000 
856 1 0.266220 0.312408 0.500000 
857 1 0.296856 0.297192 0.500000 
858 1 0.316931 0.298315 0.500000 
859 1 0.336989 0.299398 0.500000 
860 1 0.357007 0.300487 0.500000 
861 1 0.376987 0.301623 0.500000 
862 1 0.396970 0.302728 0.500000 
863 1 0.416930 0.303801 0.500000 
864 1 0.436843 0.304830 0.500000 
865 1 0.456730 0.305842 0.500000 
866 1 0.476577 0.306817 0.500000 
867 1 0.496491 0.307632 0.500000 
868 1 0.516418 0.308369 0.500000 
869 1 0.536339 0.309007 0.500000 
870 1 0.566509 0.292604 0.500000 
871 1 0.556244 0.309561 0.500000 
872 1 0.586444 0.293098 0.500000 
873 1 0.576201 0.310073 0.500000 
874 1 0.606348 0.293470 0.500000 
875 1 0.596145 0.310537 0.500000 
876 1 0.626324 0.293801 0.500000 
877 1 0.616078 0.310828 0.500000 
878 1 0.646299 0.294048 0.500000 
879 1 0.636032 0.311139 0.500000 
880 1 0.666298 0.294263 0.500000 
881 1 0.686341 0.294542 0.500000 