ITEM: TIMESTEP
2600
ITEM: NUMBER OF ATOMS
2850
ITEM: BOX BOUNDS ss ss pp
-28.0536 28.3253 
-28.9988 28.9984 
-0.5 0.5 
ITEM: ATOMS id type xs ys zs
1 1 0.012661 0.000000 0.500000 
2 1 0.032688 0.000597 0.500000 
3 1 0.052715 0.001202 0.500000 
4 1 0.072742 0.001814 0.500000 
5 1 0.092767 0.002433 0.500000 
6 1 0.112794 0.003060 0.500000 
7 1 0.132817 0.003697 0.500000 
8 1 0.152841 0.004338 0.500000 
9 1 0.172861 0.004988 0.500000 
10 1 0.192879 0.005643 0.500000 
11 1 0.212895 0.006305 0.500000 
12 1 0.232906 0.006973 0.500000 
13 1 0.252912 0.007645 0.500000 
14 1 0.272914 0.008319 0.500000 
15 1 0.292911 0.008997 0.500000 
16 1 0.312901 0.009676 0.500000 
17 1 0.332885 0.010356 0.500000 
18 1 0.352861 0.011033 0.500000 
19 1 0.372830 0.011707 0.500000 
20 1 0.392791 0.012376 0.500000 
21 1 0.022340 0.017073 0.500000 
22 1 0.042369 0.017677 0.500000 
23 1 0.062397 0.018289 0.500000 
24 1 0.082426 0.018911 0.500000 
25 1 0.102455 0.019539 0.500000 
26 1 0.122484 0.020177 0.500000 
27 1 0.142511 0.020822 0.500000 
28 1 0.162536 0.021475 0.500000 
29 1 0.182559 0.022136 0.500000 
30 1 0.202579 0.022803 0.500000 
31 1 0.222596 0.023475 0.500000 
32 1 0.242610 0.024155 0.500000 
33 1 0.262618 0.024839 0.500000 
34 1 0.282622 0.025527 0.500000 
35 1 0.302619 0.026217 0.500000 
36 1 0.322610 0.026908 0.500000 
37 1 0.342593 0.027600 0.500000 
38 1 0.362570 0.028289 0.500000 
39 1 0.382537 0.028974 0.500000 
40 1 0.402497 0.029655 0.500000 
41 1 0.412744 0.013039 0.500000 
42 1 0.422448 0.030326 0.500000 
43 1 0.432688 0.013694 0.500000 
44 1 0.442390 0.030989 0.500000 
45 1 0.452624 0.014337 0.500000 
46 1 0.462324 0.031639 0.500000 
47 1 0.472553 0.014968 0.500000 
48 1 0.482250 0.032276 0.500000 
49 1 0.492474 0.015584 0.500000 
50 1 0.512388 0.016184 0.500000 
51 1 0.532295 0.016766 0.500000 
52 1 0.552198 0.017330 0.500000 
53 1 0.572095 0.017873 0.500000 
54 1 0.591989 0.018396 0.500000 
55 1 0.611880 0.018896 0.500000 
56 1 0.631769 0.019373 0.500000 
57 1 0.651657 0.019829 0.500000 
58 1 0.671546 0.020261 0.500000 
59 1 0.691436 0.020670 0.500000 
60 1 0.711328 0.021058 0.500000 
61 1 0.731222 0.021423 0.500000 
62 1 0.751120 0.021768 0.500000 
63 1 0.771021 0.022094 0.500000 
64 1 0.790927 0.022399 0.500000 
65 1 0.810837 0.022687 0.500000 
66 1 0.830751 0.022958 0.500000 
67 1 0.850671 0.023211 0.500000 
68 1 0.870595 0.023449 0.500000 
69 1 0.890525 0.023674 0.500000 
70 1 0.910459 0.023884 0.500000 
71 1 0.930398 0.024080 0.500000 
72 1 0.950341 0.024267 0.500000 
73 1 0.970290 0.024443 0.500000 
74 1 0.990243 0.024606 0.500000 
75 1 0.011983 0.033545 0.500000 
76 1 0.032014 0.034148 0.500000 
77 1 0.021650 0.050615 0.500000 
78 1 0.052044 0.034760 0.500000 
79 1 0.041680 0.051227 0.500000 
80 1 0.072075 0.035381 0.500000 
81 1 0.061715 0.051847 0.500000 
82 1 0.092107 0.036012 0.500000 
83 1 0.081758 0.052489 0.500000 
84 1 0.112138 0.036650 0.500000 
85 1 0.132168 0.037297 0.500000 
86 1 0.152197 0.037952 0.500000 
87 1 0.172226 0.038617 0.500000 
88 1 0.192251 0.039288 0.500000 
89 1 0.212274 0.039967 0.500000 
90 1 0.232293 0.040654 0.500000 
91 1 0.252309 0.041345 0.500000 
92 1 0.272318 0.042042 0.500000 
93 1 0.292324 0.042743 0.500000 
94 1 0.312323 0.043447 0.500000 
95 1 0.332314 0.044150 0.500000 
96 1 0.352297 0.044856 0.500000 
97 1 0.372273 0.045557 0.500000 
98 1 0.392240 0.046254 0.500000 
99 1 0.412198 0.046944 0.500000 
100 1 0.432147 0.047626 0.500000 
101 1 0.452087 0.048297 0.500000 
102 1 0.472018 0.048954 0.500000 
103 1 0.502167 0.032896 0.500000 
104 1 0.491940 0.049595 0.500000 
105 1 0.522078 0.033498 0.500000 
106 1 0.511855 0.050220 0.500000 
107 1 0.541983 0.034081 0.500000 
108 1 0.531762 0.050823 0.500000 
109 1 0.561882 0.034643 0.500000 
110 1 0.551663 0.051406 0.500000 
111 1 0.581777 0.035184 0.500000 
112 1 0.571560 0.051966 0.500000 
113 1 0.601668 0.035702 0.500000 
114 1 0.591452 0.052503 0.500000 
115 1 0.621558 0.036195 0.500000 
116 1 0.641446 0.036666 0.500000 
117 1 0.661334 0.037110 0.500000 
118 1 0.681223 0.037533 0.500000 
119 1 0.701115 0.037931 0.500000 
120 1 0.721007 0.038307 0.500000 
121 1 0.740905 0.038660 0.500000 
122 1 0.760806 0.038993 0.500000 
123 1 0.780711 0.039305 0.500000 
124 1 0.800620 0.039597 0.500000 
125 1 0.820536 0.039873 0.500000 
126 1 0.840456 0.040130 0.500000 
127 1 0.860382 0.040369 0.500000 
128 1 0.880312 0.040595 0.500000 
129 1 0.900248 0.040807 0.500000 
130 1 0.920188 0.041005 0.500000 
131 1 0.940134 0.041192 0.500000 
132 1 0.960084 0.041368 0.500000 
133 1 0.980040 0.041531 0.500000 
134 1 1.000000 0.041686 0.500000 
135 1 0.011275 0.067077 0.500000 
136 1 0.031308 0.067688 0.500000 
137 1 0.051342 0.068307 0.500000 
138 1 0.071376 0.068936 0.500000 
139 1 0.091433 0.069603 0.500000 
140 1 0.101794 0.053126 0.500000 
141 1 0.111483 0.070247 0.500000 
142 1 0.121836 0.053774 0.500000 
143 1 0.131535 0.070899 0.500000 
144 1 0.141882 0.054430 0.500000 
145 1 0.151574 0.071592 0.500000 
146 1 0.161917 0.055118 0.500000 
147 1 0.171623 0.072281 0.500000 
148 1 0.181948 0.055794 0.500000 
149 1 0.201976 0.056481 0.500000 
150 1 0.221994 0.057187 0.500000 
151 1 0.242020 0.057884 0.500000 
152 1 0.262033 0.058575 0.500000 
153 1 0.282034 0.059277 0.500000 
154 1 0.302037 0.059995 0.500000 
155 1 0.322019 0.060706 0.500000 
156 1 0.342002 0.061417 0.500000 
157 1 0.361980 0.062138 0.500000 
158 1 0.381954 0.062859 0.500000 
159 1 0.401925 0.063558 0.500000 
160 1 0.421877 0.064267 0.500000 
161 1 0.441811 0.064944 0.500000 
162 1 0.461746 0.065628 0.500000 
163 1 0.481660 0.066283 0.500000 
164 1 0.501573 0.066923 0.500000 
165 1 0.521491 0.067537 0.500000 
166 1 0.541397 0.068147 0.500000 
167 1 0.561299 0.068717 0.500000 
168 1 0.581195 0.069269 0.500000 
169 1 0.601085 0.069777 0.500000 
170 1 0.611341 0.053013 0.500000 
171 1 0.620986 0.070301 0.500000 
172 1 0.631230 0.053499 0.500000 
173 1 0.640873 0.070766 0.500000 
174 1 0.651117 0.053960 0.500000 
175 1 0.671006 0.054396 0.500000 
176 1 0.660768 0.071233 0.500000 
177 1 0.690897 0.054806 0.500000 
178 1 0.680664 0.071649 0.500000 
179 1 0.710789 0.055192 0.500000 
180 1 0.700564 0.072044 0.500000 
181 1 0.730685 0.055554 0.500000 
182 1 0.720459 0.072423 0.500000 
183 1 0.750586 0.055894 0.500000 
184 1 0.770490 0.056213 0.500000 
185 1 0.790400 0.056511 0.500000 
186 1 0.810316 0.056789 0.500000 
187 1 0.830238 0.057049 0.500000 
188 1 0.850164 0.057294 0.500000 
189 1 0.870095 0.057522 0.500000 
190 1 0.890032 0.057734 0.500000 
191 1 0.909975 0.057934 0.500000 
192 1 0.929922 0.058120 0.500000 
193 1 0.949875 0.058294 0.500000 
194 1 0.969833 0.058458 0.500000 
195 1 0.989796 0.058613 0.500000 
196 1 0.020924 0.084144 0.500000 
197 1 0.040959 0.084763 0.500000 
198 1 0.060994 0.085390 0.500000 
199 1 0.081045 0.086047 0.500000 
200 1 0.101096 0.086711 0.500000 
201 1 0.121161 0.087357 0.500000 
202 1 0.141202 0.088047 0.500000 
203 1 0.161254 0.088739 0.500000 
204 1 0.191657 0.072974 0.500000 
205 1 0.181302 0.089448 0.500000 
206 1 0.211677 0.073696 0.500000 
207 1 0.201323 0.090179 0.500000 
208 1 0.221370 0.090879 0.500000 
209 1 0.231705 0.074384 0.500000 
210 1 0.241420 0.091585 0.500000 
211 1 0.251734 0.075096 0.500000 
212 1 0.261441 0.092338 0.500000 
213 1 0.271735 0.075813 0.500000 
214 1 0.291742 0.076522 0.500000 
215 1 0.311742 0.077260 0.500000 
216 1 0.331740 0.077976 0.500000 
217 1 0.351722 0.078711 0.500000 
218 1 0.371676 0.079452 0.500000 
219 1 0.391638 0.080163 0.500000 
220 1 0.411596 0.080882 0.500000 
221 1 0.431554 0.081602 0.500000 
222 1 0.451486 0.082288 0.500000 
223 1 0.471417 0.082974 0.500000 
224 1 0.491338 0.083628 0.500000 
225 1 0.511243 0.084246 0.500000 
226 1 0.531141 0.084868 0.500000 
227 1 0.551037 0.085474 0.500000 
228 1 0.570935 0.086036 0.500000 
229 1 0.590835 0.086571 0.500000 
230 1 0.610724 0.087064 0.500000 
231 1 0.630624 0.087577 0.500000 
232 1 0.650516 0.088044 0.500000 
233 1 0.670417 0.088490 0.500000 
234 1 0.690321 0.088890 0.500000 
235 1 0.710228 0.089285 0.500000 
236 1 0.730130 0.089643 0.500000 
237 1 0.740358 0.072769 0.500000 
238 1 0.750034 0.089971 0.500000 
239 1 0.760257 0.073092 0.500000 
240 1 0.769944 0.090281 0.500000 
241 1 0.780162 0.073395 0.500000 
242 1 0.789869 0.090572 0.500000 
243 1 0.800080 0.073681 0.500000 
244 1 0.809801 0.090842 0.500000 
245 1 0.820010 0.073946 0.500000 
246 1 0.829737 0.091095 0.500000 
247 1 0.839945 0.074192 0.500000 
248 1 0.849682 0.091318 0.500000 
249 1 0.859884 0.074422 0.500000 
250 1 0.869621 0.091561 0.500000 
251 1 0.879815 0.074646 0.500000 
252 1 0.889566 0.091766 0.500000 
253 1 0.899763 0.074847 0.500000 
254 1 0.909514 0.091967 0.500000 
255 1 0.919708 0.075039 0.500000 
256 1 0.929460 0.092142 0.500000 
257 1 0.939662 0.075213 0.500000 
258 1 0.949407 0.092323 0.500000 
259 1 0.959621 0.075390 0.500000 
260 1 0.979588 0.075542 0.500000 
261 1 0.999557 0.075685 0.500000 
262 1 0.010532 0.100598 0.500000 
263 1 0.030566 0.101214 0.500000 
264 1 0.050602 0.101839 0.500000 
265 1 0.070640 0.102476 0.500000 
266 1 0.090695 0.103153 0.500000 
267 1 0.110766 0.103798 0.500000 
268 1 0.130824 0.104487 0.500000 
269 1 0.150871 0.105181 0.500000 
270 1 0.170923 0.105893 0.500000 
271 1 0.190968 0.106650 0.500000 
272 1 0.211016 0.107364 0.500000 
273 1 0.231063 0.108069 0.500000 
274 1 0.251084 0.108834 0.500000 
275 1 0.271113 0.109570 0.500000 
276 1 0.281457 0.093055 0.500000 
277 1 0.291113 0.110334 0.500000 
278 1 0.301450 0.093805 0.500000 
279 1 0.311112 0.111088 0.500000 
280 1 0.321433 0.094533 0.500000 
281 1 0.331104 0.111824 0.500000 
282 1 0.341410 0.095268 0.500000 
283 1 0.361375 0.096031 0.500000 
284 1 0.381348 0.096762 0.500000 
285 1 0.401313 0.097490 0.500000 
286 1 0.421267 0.098220 0.500000 
287 1 0.441208 0.098954 0.500000 
288 1 0.461125 0.099646 0.500000 
289 1 0.481049 0.100312 0.500000 
290 1 0.500968 0.100963 0.500000 
291 1 0.520871 0.101584 0.500000 
292 1 0.540772 0.102213 0.500000 
293 1 0.560671 0.102812 0.500000 
294 1 0.580571 0.103362 0.500000 
295 1 0.600482 0.103863 0.500000 
296 1 0.620375 0.104367 0.500000 
297 1 0.640280 0.104857 0.500000 
298 1 0.660175 0.105313 0.500000 
299 1 0.680076 0.105740 0.500000 
300 1 0.699981 0.106135 0.500000 
301 1 0.719890 0.106510 0.500000 
302 1 0.739793 0.106849 0.500000 
303 1 0.759702 0.107175 0.500000 
304 1 0.779632 0.107459 0.500000 
305 1 0.799569 0.107736 0.500000 
306 1 0.819503 0.107989 0.500000 
307 1 0.839445 0.108222 0.500000 
308 1 0.859389 0.108459 0.500000 
309 1 0.879344 0.108681 0.500000 
310 1 0.899300 0.108884 0.500000 
311 1 0.919251 0.109081 0.500000 
312 1 0.939199 0.109246 0.500000 
313 1 0.969375 0.092475 0.500000 
314 1 0.959160 0.109410 0.500000 
315 1 0.989349 0.092617 0.500000 
316 1 0.979136 0.109550 0.500000 
317 1 0.999117 0.109681 0.500000 
318 1 0.020165 0.117663 0.500000 
319 1 0.040201 0.118287 0.500000 
320 1 0.060239 0.118920 0.500000 
321 1 0.080296 0.119583 0.500000 
322 1 0.100366 0.120243 0.500000 
323 1 0.120420 0.120920 0.500000 
324 1 0.140467 0.121622 0.500000 
325 1 0.160531 0.122327 0.500000 
326 1 0.180582 0.123084 0.500000 
327 1 0.200638 0.123830 0.500000 
328 1 0.220696 0.124551 0.500000 
329 1 0.240721 0.125318 0.500000 
330 1 0.260761 0.126056 0.500000 
331 1 0.280778 0.126839 0.500000 
332 1 0.300787 0.127611 0.500000 
333 1 0.320792 0.128367 0.500000 
334 1 0.340770 0.129146 0.500000 
335 1 0.351076 0.112592 0.500000 
336 1 0.360744 0.129913 0.500000 
337 1 0.371050 0.113343 0.500000 
338 1 0.380712 0.130675 0.500000 
339 1 0.391015 0.114091 0.500000 
340 1 0.400672 0.131432 0.500000 
341 1 0.410966 0.114831 0.500000 
342 1 0.420616 0.132200 0.500000 
343 1 0.430905 0.115581 0.500000 
344 1 0.450841 0.116315 0.500000 
345 1 0.470767 0.116996 0.500000 
346 1 0.490689 0.117662 0.500000 
347 1 0.510603 0.118316 0.500000 
348 1 0.530506 0.118947 0.500000 
349 1 0.550416 0.119562 0.500000 
350 1 0.570326 0.120141 0.500000 
351 1 0.590235 0.120660 0.500000 
352 1 0.610125 0.121180 0.500000 
353 1 0.630026 0.121663 0.500000 
354 1 0.649929 0.122142 0.500000 
355 1 0.669831 0.122575 0.500000 
356 1 0.689730 0.122990 0.500000 
357 1 0.709650 0.123372 0.500000 
358 1 0.729570 0.123724 0.500000 
359 1 0.749487 0.124063 0.500000 
360 1 0.769413 0.124359 0.500000 
361 1 0.789348 0.124626 0.500000 
362 1 0.809291 0.124888 0.500000 
363 1 0.829236 0.125129 0.500000 
364 1 0.849177 0.125363 0.500000 
365 1 0.869120 0.125591 0.500000 
366 1 0.889081 0.125792 0.500000 
367 1 0.909044 0.125994 0.500000 
368 1 0.929003 0.126179 0.500000 
369 1 0.948940 0.126349 0.500000 
370 1 0.968919 0.126487 0.500000 
371 1 0.988905 0.126616 0.500000 
372 1 0.009754 0.134110 0.500000 
373 1 0.029790 0.134729 0.500000 
374 1 0.019367 0.151171 0.500000 
375 1 0.049825 0.135360 0.500000 
376 1 0.039403 0.151799 0.500000 
377 1 0.069865 0.136003 0.500000 
378 1 0.089944 0.136682 0.500000 
379 1 0.110014 0.137360 0.500000 
380 1 0.130071 0.138068 0.500000 
381 1 0.150127 0.138758 0.500000 
382 1 0.170181 0.139497 0.500000 
383 1 0.190242 0.140263 0.500000 
384 1 0.210302 0.141005 0.500000 
385 1 0.230346 0.141782 0.500000 
386 1 0.250389 0.142530 0.500000 
387 1 0.270415 0.143304 0.500000 
388 1 0.290440 0.144110 0.500000 
389 1 0.310462 0.144887 0.500000 
390 1 0.330445 0.145687 0.500000 
391 1 0.350429 0.146467 0.500000 
392 1 0.370409 0.147245 0.500000 
393 1 0.390381 0.148021 0.500000 
394 1 0.410325 0.148806 0.500000 
395 1 0.440556 0.132949 0.500000 
396 1 0.430257 0.149577 0.500000 
397 1 0.460486 0.133674 0.500000 
398 1 0.450187 0.150328 0.500000 
399 1 0.480412 0.134358 0.500000 
400 1 0.470123 0.151040 0.500000 
401 1 0.500334 0.135026 0.500000 
402 1 0.490053 0.151725 0.500000 
403 1 0.520242 0.135682 0.500000 
404 1 0.540147 0.136301 0.500000 
405 1 0.560056 0.136899 0.500000 
406 1 0.579958 0.137450 0.500000 
407 1 0.599849 0.137984 0.500000 
408 1 0.619759 0.138487 0.500000 
409 1 0.639659 0.138975 0.500000 
410 1 0.659570 0.139409 0.500000 
411 1 0.679476 0.139846 0.500000 
412 1 0.699400 0.140225 0.500000 
413 1 0.719322 0.140602 0.500000 
414 1 0.739245 0.140932 0.500000 
415 1 0.759186 0.141247 0.500000 
416 1 0.779127 0.141525 0.500000 
417 1 0.799065 0.141790 0.500000 
418 1 0.819010 0.142039 0.500000 
419 1 0.838957 0.142272 0.500000 
420 1 0.858912 0.142503 0.500000 
421 1 0.878875 0.142707 0.500000 
422 1 0.898832 0.142907 0.500000 
423 1 0.918791 0.143099 0.500000 
424 1 0.938747 0.143272 0.500000 
425 1 0.958701 0.143428 0.500000 
426 1 0.978689 0.143555 0.500000 
427 1 0.998682 0.143674 0.500000 
428 1 0.008938 0.167610 0.500000 
429 1 0.028972 0.168234 0.500000 
430 1 0.049008 0.168868 0.500000 
431 1 0.059442 0.152437 0.500000 
432 1 0.069047 0.169517 0.500000 
433 1 0.079505 0.153108 0.500000 
434 1 0.089118 0.170213 0.500000 
435 1 0.099577 0.153792 0.500000 
436 1 0.109183 0.170899 0.500000 
437 1 0.119645 0.154490 0.500000 
438 1 0.139715 0.155194 0.500000 
439 1 0.129257 0.171603 0.500000 
440 1 0.159762 0.155910 0.500000 
441 1 0.179820 0.156668 0.500000 
442 1 0.199889 0.157442 0.500000 
443 1 0.219940 0.158215 0.500000 
444 1 0.239998 0.158994 0.500000 
445 1 0.260033 0.159767 0.500000 
446 1 0.280057 0.160573 0.500000 
447 1 0.300094 0.161379 0.500000 
448 1 0.320101 0.162201 0.500000 
449 1 0.340107 0.162995 0.500000 
450 1 0.360098 0.163797 0.500000 
451 1 0.380061 0.164595 0.500000 
452 1 0.400020 0.165394 0.500000 
453 1 0.419955 0.166192 0.500000 
454 1 0.439887 0.166966 0.500000 
455 1 0.459828 0.167710 0.500000 
456 1 0.479761 0.168412 0.500000 
457 1 0.499673 0.169116 0.500000 
458 1 0.509962 0.152402 0.500000 
459 1 0.519589 0.169786 0.500000 
460 1 0.529869 0.153046 0.500000 
461 1 0.539499 0.170425 0.500000 
462 1 0.549770 0.153652 0.500000 
463 1 0.559402 0.171018 0.500000 
464 1 0.569680 0.154244 0.500000 
465 1 0.579313 0.171593 0.500000 
466 1 0.589582 0.154788 0.500000 
467 1 0.609486 0.155298 0.500000 
468 1 0.629383 0.155809 0.500000 
469 1 0.649296 0.156255 0.500000 
470 1 0.669208 0.156690 0.500000 
471 1 0.689133 0.157085 0.500000 
472 1 0.709057 0.157474 0.500000 
473 1 0.729002 0.157815 0.500000 
474 1 0.748937 0.158129 0.500000 
475 1 0.768875 0.158424 0.500000 
476 1 0.788813 0.158694 0.500000 
477 1 0.808773 0.158942 0.500000 
478 1 0.828729 0.159192 0.500000 
479 1 0.848670 0.159416 0.500000 
480 1 0.868624 0.159625 0.500000 
481 1 0.888594 0.159824 0.500000 
482 1 0.908558 0.160019 0.500000 
483 1 0.928524 0.160198 0.500000 
484 1 0.948477 0.160370 0.500000 
485 1 0.968470 0.160496 0.500000 
486 1 0.988467 0.160611 0.500000 
487 1 0.018532 0.184668 0.500000 
488 1 0.038566 0.185299 0.500000 
489 1 0.058602 0.185942 0.500000 
490 1 0.078665 0.186618 0.500000 
491 1 0.098728 0.187313 0.500000 
492 1 0.118792 0.188002 0.500000 
493 1 0.138856 0.188729 0.500000 
494 1 0.149322 0.172331 0.500000 
495 1 0.158930 0.189468 0.500000 
496 1 0.169378 0.173064 0.500000 
497 1 0.178994 0.190226 0.500000 
498 1 0.189447 0.173842 0.500000 
499 1 0.199069 0.191027 0.500000 
500 1 0.209515 0.174640 0.500000 
501 1 0.219151 0.191834 0.500000 
502 1 0.229573 0.175420 0.500000 
503 1 0.249633 0.176220 0.500000 
504 1 0.269675 0.177030 0.500000 
505 1 0.289716 0.177839 0.500000 
506 1 0.309731 0.178685 0.500000 
507 1 0.329742 0.179498 0.500000 
508 1 0.349743 0.180317 0.500000 
509 1 0.369723 0.181152 0.500000 
510 1 0.389691 0.181966 0.500000 
511 1 0.409645 0.182790 0.500000 
512 1 0.429588 0.183581 0.500000 
513 1 0.449522 0.184362 0.500000 
514 1 0.469451 0.185093 0.500000 
515 1 0.489363 0.185820 0.500000 
516 1 0.509283 0.186512 0.500000 
517 1 0.529198 0.187178 0.500000 
518 1 0.549108 0.187799 0.500000 
519 1 0.569019 0.188388 0.500000 
520 1 0.588930 0.188951 0.500000 
521 1 0.599207 0.172120 0.500000 
522 1 0.608831 0.189461 0.500000 
523 1 0.619104 0.172634 0.500000 
524 1 0.628736 0.189951 0.500000 
525 1 0.639016 0.173101 0.500000 
526 1 0.648664 0.190392 0.500000 
527 1 0.658941 0.173536 0.500000 
528 1 0.668590 0.190808 0.500000 
529 1 0.678872 0.173949 0.500000 
530 1 0.688525 0.191202 0.500000 
531 1 0.698801 0.174342 0.500000 
532 1 0.718742 0.174694 0.500000 
533 1 0.738679 0.175026 0.500000 
534 1 0.758625 0.175321 0.500000 
535 1 0.778568 0.175610 0.500000 
536 1 0.798527 0.175844 0.500000 
537 1 0.818492 0.176099 0.500000 
538 1 0.838458 0.176338 0.500000 
539 1 0.858411 0.176546 0.500000 
540 1 0.878375 0.176739 0.500000 
541 1 0.898341 0.176942 0.500000 
542 1 0.918316 0.177122 0.500000 
543 1 0.938282 0.177301 0.500000 
544 1 0.958249 0.177440 0.500000 
545 1 0.978251 0.177553 0.500000 
546 1 0.998258 0.177659 0.500000 
547 1 0.008083 0.201103 0.500000 
548 1 0.028113 0.201727 0.500000 
549 1 0.048147 0.202367 0.500000 
550 1 0.068185 0.203017 0.500000 
551 1 0.088257 0.203718 0.500000 
552 1 0.108326 0.204407 0.500000 
553 1 0.128390 0.205122 0.500000 
554 1 0.148466 0.205856 0.500000 
555 1 0.168541 0.206622 0.500000 
556 1 0.188610 0.207399 0.500000 
557 1 0.208698 0.208211 0.500000 
558 1 0.239209 0.192636 0.500000 
559 1 0.228776 0.209036 0.500000 
560 1 0.259254 0.193465 0.500000 
561 1 0.248829 0.209864 0.500000 
562 1 0.279296 0.194280 0.500000 
563 1 0.268886 0.210706 0.500000 
564 1 0.299320 0.195133 0.500000 
565 1 0.288923 0.211574 0.500000 
566 1 0.319363 0.195975 0.500000 
567 1 0.339378 0.196818 0.500000 
568 1 0.359366 0.197671 0.500000 
569 1 0.379341 0.198522 0.500000 
570 1 0.399301 0.199368 0.500000 
571 1 0.419260 0.200191 0.500000 
572 1 0.439188 0.200992 0.500000 
573 1 0.459117 0.201762 0.500000 
574 1 0.479038 0.202510 0.500000 
575 1 0.498974 0.203226 0.500000 
576 1 0.518895 0.203918 0.500000 
577 1 0.538808 0.204568 0.500000 
578 1 0.558709 0.205178 0.500000 
579 1 0.578612 0.205764 0.500000 
580 1 0.598526 0.206299 0.500000 
581 1 0.618442 0.206792 0.500000 
582 1 0.638373 0.207249 0.500000 
583 1 0.658300 0.207684 0.500000 
584 1 0.678232 0.208077 0.500000 
585 1 0.708465 0.191576 0.500000 
586 1 0.698168 0.208457 0.500000 
587 1 0.728402 0.191926 0.500000 
588 1 0.718119 0.208812 0.500000 
589 1 0.748349 0.192220 0.500000 
590 1 0.738077 0.209126 0.500000 
591 1 0.768299 0.192514 0.500000 
592 1 0.758029 0.209413 0.500000 
593 1 0.788263 0.192763 0.500000 
594 1 0.777992 0.209680 0.500000 
595 1 0.808222 0.193010 0.500000 
596 1 0.797951 0.209928 0.500000 
597 1 0.828201 0.193246 0.500000 
598 1 0.817932 0.210159 0.500000 
599 1 0.848179 0.193471 0.500000 
600 1 0.837917 0.210391 0.500000 
601 1 0.868149 0.193663 0.500000 
602 1 0.857896 0.210595 0.500000 
603 1 0.888118 0.193868 0.500000 
604 1 0.877869 0.210787 0.500000 
605 1 0.908093 0.194045 0.500000 
606 1 0.897849 0.210975 0.500000 
607 1 0.928067 0.194224 0.500000 
608 1 0.917834 0.211150 0.500000 
609 1 0.948021 0.194385 0.500000 
610 1 0.937819 0.211318 0.500000 
611 1 0.957807 0.211443 0.500000 
612 1 0.968031 0.194496 0.500000 
613 1 0.977825 0.211543 0.500000 
614 1 0.988043 0.194599 0.500000 
615 1 0.997847 0.211634 0.500000 
616 1 0.017654 0.218157 0.500000 
617 1 0.037684 0.218790 0.500000 
618 1 0.057718 0.219436 0.500000 
619 1 0.077777 0.220108 0.500000 
620 1 0.097850 0.220813 0.500000 
621 1 0.117919 0.221524 0.500000 
622 1 0.137986 0.222243 0.500000 
623 1 0.158063 0.222997 0.500000 
624 1 0.178148 0.223781 0.500000 
625 1 0.198223 0.224571 0.500000 
626 1 0.218306 0.225402 0.500000 
627 1 0.238387 0.226247 0.500000 
628 1 0.258454 0.227094 0.500000 
629 1 0.278506 0.227982 0.500000 
630 1 0.298567 0.228854 0.500000 
631 1 0.308968 0.212417 0.500000 
632 1 0.318594 0.229751 0.500000 
633 1 0.328995 0.213294 0.500000 
634 1 0.338611 0.230650 0.500000 
635 1 0.348994 0.214173 0.500000 
636 1 0.358616 0.231545 0.500000 
637 1 0.368975 0.215042 0.500000 
638 1 0.388942 0.215929 0.500000 
639 1 0.408905 0.216774 0.500000 
640 1 0.428854 0.217616 0.500000 
641 1 0.448789 0.218403 0.500000 
642 1 0.468719 0.219192 0.500000 
643 1 0.488654 0.219936 0.500000 
644 1 0.508584 0.220657 0.500000 
645 1 0.528508 0.221335 0.500000 
646 1 0.548415 0.221968 0.500000 
647 1 0.568313 0.222561 0.500000 
648 1 0.588223 0.223121 0.500000 
649 1 0.608151 0.223641 0.500000 
650 1 0.628090 0.224107 0.500000 
651 1 0.648027 0.224554 0.500000 
652 1 0.667953 0.224960 0.500000 
653 1 0.687886 0.225347 0.500000 
654 1 0.707832 0.225695 0.500000 
655 1 0.727797 0.226022 0.500000 
656 1 0.747770 0.226313 0.500000 
657 1 0.767739 0.226589 0.500000 
658 1 0.787700 0.226850 0.500000 
659 1 0.807671 0.227074 0.500000 
660 1 0.827659 0.227302 0.500000 
661 1 0.847655 0.227521 0.500000 
662 1 0.867646 0.227710 0.500000 
663 1 0.887629 0.227903 0.500000 
664 1 0.907611 0.228076 0.500000 
665 1 0.927596 0.228251 0.500000 
666 1 0.947580 0.228392 0.500000 
667 1 0.967605 0.228489 0.500000 
668 1 0.987634 0.228577 0.500000 
669 1 0.007189 0.234587 0.500000 
670 1 0.027214 0.235215 0.500000 
671 1 0.047243 0.235854 0.500000 
672 1 0.067275 0.236508 0.500000 
673 1 0.087341 0.237195 0.500000 
674 1 0.107420 0.237914 0.500000 
675 1 0.127508 0.238635 0.500000 
676 1 0.147578 0.239369 0.500000 
677 1 0.167653 0.240135 0.500000 
678 1 0.187749 0.240930 0.500000 
679 1 0.207831 0.241761 0.500000 
680 1 0.227911 0.242606 0.500000 
681 1 0.247994 0.243472 0.500000 
682 1 0.268057 0.244366 0.500000 
683 1 0.288123 0.245248 0.500000 
684 1 0.308166 0.246175 0.500000 
685 1 0.328204 0.247106 0.500000 
686 1 0.348231 0.248022 0.500000 
687 1 0.378592 0.232458 0.500000 
688 1 0.368218 0.248972 0.500000 
689 1 0.398570 0.233339 0.500000 
690 1 0.388197 0.249882 0.500000 
691 1 0.418524 0.234211 0.500000 
692 1 0.408153 0.250793 0.500000 
693 1 0.438475 0.235045 0.500000 
694 1 0.428110 0.251663 0.500000 
695 1 0.458400 0.235860 0.500000 
696 1 0.478327 0.236637 0.500000 
697 1 0.498256 0.237383 0.500000 
698 1 0.518172 0.238097 0.500000 
699 1 0.538086 0.238761 0.500000 
700 1 0.558003 0.239370 0.500000 
701 1 0.577921 0.239944 0.500000 
702 1 0.597859 0.240490 0.500000 
703 1 0.617796 0.240971 0.500000 
704 1 0.637729 0.241415 0.500000 
705 1 0.657663 0.241848 0.500000 
706 1 0.677604 0.242228 0.500000 
707 1 0.697553 0.242593 0.500000 
708 1 0.717515 0.242917 0.500000 
709 1 0.737491 0.243219 0.500000 
710 1 0.757459 0.243493 0.500000 
711 1 0.777431 0.243763 0.500000 
712 1 0.797412 0.243999 0.500000 
713 1 0.817398 0.244218 0.500000 
714 1 0.837391 0.244430 0.500000 
715 1 0.857388 0.244632 0.500000 
716 1 0.877378 0.244826 0.500000 
717 1 0.897383 0.245005 0.500000 
718 1 0.917382 0.245169 0.500000 
719 1 0.937386 0.245323 0.500000 
720 1 0.957383 0.245436 0.500000 
721 1 0.977417 0.245522 0.500000 
722 1 0.997455 0.245600 0.500000 
723 1 0.016737 0.251640 0.500000 
724 1 0.006256 0.268068 0.500000 
725 1 0.036760 0.252274 0.500000 
726 1 0.026272 0.268696 0.500000 
727 1 0.056787 0.252921 0.500000 
728 1 0.046292 0.269335 0.500000 
729 1 0.076848 0.253593 0.500000 
730 1 0.066319 0.269991 0.500000 
731 1 0.096900 0.254289 0.500000 
732 1 0.086379 0.270683 0.500000 
733 1 0.116980 0.255001 0.500000 
734 1 0.137069 0.255738 0.500000 
735 1 0.157144 0.256499 0.500000 
736 1 0.177229 0.257270 0.500000 
737 1 0.197325 0.258108 0.500000 
738 1 0.217418 0.258955 0.500000 
739 1 0.237506 0.259819 0.500000 
740 1 0.257586 0.260733 0.500000 
741 1 0.277667 0.261624 0.500000 
742 1 0.297724 0.262560 0.500000 
743 1 0.317764 0.263523 0.500000 
744 1 0.337795 0.264468 0.500000 
745 1 0.357803 0.265451 0.500000 
746 1 0.377809 0.266401 0.500000 
747 1 0.397781 0.267348 0.500000 
748 1 0.417734 0.268266 0.500000 
749 1 0.437678 0.269159 0.500000 
750 1 0.448055 0.252526 0.500000 
751 1 0.457626 0.270011 0.500000 
752 1 0.467985 0.253334 0.500000 
753 1 0.477562 0.270813 0.500000 
754 1 0.487903 0.254088 0.500000 
755 1 0.507820 0.254836 0.500000 
756 1 0.527736 0.255545 0.500000 
757 1 0.547661 0.256183 0.500000 
758 1 0.567582 0.256773 0.500000 
759 1 0.587516 0.257311 0.500000 
760 1 0.607469 0.257835 0.500000 
761 1 0.627411 0.258290 0.500000 
762 1 0.647347 0.258725 0.500000 
763 1 0.667292 0.259119 0.500000 
764 1 0.687243 0.259488 0.500000 
765 1 0.707215 0.259818 0.500000 
766 1 0.727191 0.260124 0.500000 
767 1 0.747163 0.260418 0.500000 
768 1 0.767139 0.260676 0.500000 
769 1 0.787133 0.260915 0.500000 
770 1 0.807125 0.261142 0.500000 
771 1 0.827118 0.261353 0.500000 
772 1 0.847123 0.261550 0.500000 
773 1 0.867123 0.261762 0.500000 
774 1 0.887125 0.261923 0.500000 
775 1 0.907138 0.262095 0.500000 
776 1 0.927149 0.262248 0.500000 
777 1 0.947159 0.262387 0.500000 
778 1 0.967200 0.262468 0.500000 
779 1 0.987245 0.262544 0.500000 
780 1 0.015779 0.285121 0.500000 
781 1 0.035792 0.285753 0.500000 
782 1 0.055810 0.286400 0.500000 
783 1 0.075851 0.287077 0.500000 
784 1 0.095914 0.287764 0.500000 
785 1 0.106443 0.271378 0.500000 
786 1 0.115983 0.288481 0.500000 
787 1 0.126519 0.272097 0.500000 
788 1 0.136057 0.289210 0.500000 
789 1 0.146607 0.272859 0.500000 
790 1 0.156157 0.289982 0.500000 
791 1 0.166702 0.273636 0.500000 
792 1 0.176251 0.290788 0.500000 
793 1 0.186790 0.274436 0.500000 
794 1 0.206901 0.275288 0.500000 
795 1 0.226999 0.276145 0.500000 
796 1 0.247085 0.277058 0.500000 
797 1 0.267183 0.277980 0.500000 
798 1 0.287244 0.278922 0.500000 
799 1 0.307301 0.279901 0.500000 
800 1 0.327353 0.280887 0.500000 
801 1 0.347355 0.281887 0.500000 
802 1 0.367373 0.282866 0.500000 
803 1 0.387375 0.283853 0.500000 
804 1 0.407357 0.284822 0.500000 
805 1 0.427311 0.285775 0.500000 
806 1 0.447244 0.286671 0.500000 
807 1 0.467176 0.287511 0.500000 
808 1 0.497478 0.271567 0.500000 
809 1 0.487107 0.288318 0.500000 
810 1 0.507029 0.289071 0.500000 
811 1 0.517395 0.272314 0.500000 
812 1 0.526956 0.289787 0.500000 
813 1 0.537316 0.272985 0.500000 
814 1 0.546889 0.290415 0.500000 
815 1 0.557262 0.273605 0.500000 
816 1 0.577206 0.274154 0.500000 
817 1 0.597142 0.274681 0.500000 
818 1 0.617089 0.275168 0.500000 
819 1 0.637038 0.275603 0.500000 
820 1 0.657001 0.276016 0.500000 
821 1 0.676951 0.276390 0.500000 
822 1 0.696916 0.276723 0.500000 
823 1 0.716891 0.277034 0.500000 
824 1 0.736876 0.277325 0.500000 
825 1 0.756864 0.277599 0.500000 
826 1 0.776864 0.277834 0.500000 
827 1 0.796867 0.278058 0.500000 
828 1 0.816862 0.278282 0.500000 
829 1 0.836872 0.278478 0.500000 
830 1 0.856889 0.278675 0.500000 
831 1 0.876909 0.278862 0.500000 
832 1 0.896913 0.279018 0.500000 
833 1 0.916934 0.279178 0.500000 
834 1 0.936958 0.279319 0.500000 
835 1 0.956982 0.279417 0.500000 
836 1 0.977036 0.279488 0.500000 
837 1 0.997089 0.279555 0.500000 
838 1 0.005284 0.301547 0.500000 
839 1 0.025288 0.302175 0.500000 
840 1 0.045299 0.302815 0.500000 
841 1 0.065313 0.303468 0.500000 
842 1 0.085375 0.304145 0.500000 
843 1 0.105440 0.304851 0.500000 
844 1 0.125511 0.305577 0.500000 
845 1 0.145588 0.306307 0.500000 
846 1 0.165680 0.307107 0.500000 
847 1 0.196347 0.291600 0.500000 
848 1 0.185792 0.307921 0.500000 
849 1 0.216459 0.292466 0.500000 
850 1 0.205894 0.308769 0.500000 
851 1 0.236551 0.293369 0.500000 
852 1 0.225992 0.309678 0.500000 
853 1 0.256648 0.294292 0.500000 
854 1 0.246088 0.310600 0.500000 
855 1 0.276726 0.295269 0.500000 
856 1 0.266168 0.311576 0.500000 
857 1 0.296794 0.296252 0.500000 
858 1 0.316862 0.297254 0.500000 
859 1 0.336895 0.298300 0.500000 
860 1 0.356921 0.299293 0.500000 
861 1 0.376924 0.300326 0.500000 
862 1 0.396914 0.301336 0.500000 
863 1 0.416885 0.302336 0.500000 
864 1 0.436848 0.303305 0.500000 
865 1 0.456787 0.304193 0.500000 
866 1 0.476712 0.305046 0.500000 
867 1 0.496635 0.305832 0.500000 
868 1 0.516563 0.306563 0.500000 
869 1 0.536500 0.307236 0.500000 
870 1 0.566835 0.291003 0.500000 
871 1 0.556447 0.307836 0.500000 
872 1 0.586775 0.291535 0.500000 
873 1 0.576406 0.308400 0.500000 
874 1 0.606733 0.292044 0.500000 
875 1 0.596374 0.308900 0.500000 
876 1 0.626690 0.292502 0.500000 
877 1 0.616352 0.309393 0.500000 
878 1 0.646663 0.292900 0.500000 
879 1 0.636336 0.309801 0.500000 
880 1 0.666641 0.293298 0.500000 
881 1 0.686615 0.293633 0.500000 