ITEM: TIMESTEP
1300
ITEM: NUMBER OF ATOMS
2850
ITEM: BOX BOUNDS ss ss pp
-28.0536 28.3253 
-28.9988 28.9984 
-0.5 0.5 
ITEM: ATOMS id type xs ys zs
1 1 0.012661 0.000000 0.500000 
2 1 0.032688 0.000597 0.500000 
3 1 0.052715 0.001202 0.500000 
4 1 0.072742 0.001814 0.500000 
5 1 0.092767 0.002433 0.500000 
6 1 0.112794 0.003060 0.500000 
7 1 0.132817 0.003697 0.500000 
8 1 0.152841 0.004338 0.500000 
9 1 0.172861 0.004988 0.500000 
10 1 0.192879 0.005643 0.500000 
11 1 0.212895 0.006305 0.500000 
12 1 0.232906 0.006973 0.500000 
13 1 0.252912 0.007645 0.500000 
14 1 0.272914 0.008319 0.500000 
15 1 0.292911 0.008997 0.500000 
16 1 0.312901 0.009676 0.500000 
17 1 0.332885 0.010356 0.500000 
18 1 0.352861 0.011033 0.500000 
19 1 0.372830 0.011707 0.500000 
20 1 0.392791 0.012376 0.500000 
21 1 0.022340 0.017073 0.500000 
22 1 0.042369 0.017677 0.500000 
23 1 0.062397 0.018289 0.500000 
24 1 0.082426 0.018911 0.500000 
25 1 0.102455 0.019539 0.500000 
26 1 0.122484 0.020177 0.500000 
27 1 0.142511 0.020822 0.500000 
28 1 0.162536 0.021475 0.500000 
29 1 0.182559 0.022136 0.500000 
30 1 0.202579 0.022803 0.500000 
31 1 0.222596 0.023475 0.500000 
32 1 0.242610 0.024155 0.500000 
33 1 0.262618 0.024839 0.500000 
34 1 0.282622 0.025527 0.500000 
35 1 0.302619 0.026217 0.500000 
36 1 0.322610 0.026908 0.500000 
37 1 0.342593 0.027600 0.500000 
38 1 0.362570 0.028289 0.500000 
39 1 0.382537 0.028974 0.500000 
40 1 0.402497 0.029655 0.500000 
41 1 0.412744 0.013039 0.500000 
42 1 0.422448 0.030326 0.500000 
43 1 0.432688 0.013694 0.500000 
44 1 0.442390 0.030989 0.500000 
45 1 0.452624 0.014337 0.500000 
46 1 0.462324 0.031639 0.500000 
47 1 0.472553 0.014968 0.500000 
48 1 0.482250 0.032276 0.500000 
49 1 0.492474 0.015584 0.500000 
50 1 0.512388 0.016184 0.500000 
51 1 0.532295 0.016766 0.500000 
52 1 0.552198 0.017330 0.500000 
53 1 0.572095 0.017873 0.500000 
54 1 0.591989 0.018396 0.500000 
55 1 0.611880 0.018896 0.500000 
56 1 0.631769 0.019373 0.500000 
57 1 0.651657 0.019829 0.500000 
58 1 0.671546 0.020261 0.500000 
59 1 0.691436 0.020670 0.500000 
60 1 0.711328 0.021058 0.500000 
61 1 0.731222 0.021423 0.500000 
62 1 0.751120 0.021768 0.500000 
63 1 0.771021 0.022094 0.500000 
64 1 0.790927 0.022399 0.500000 
65 1 0.810837 0.022687 0.500000 
66 1 0.830751 0.022958 0.500000 
67 1 0.850671 0.023211 0.500000 
68 1 0.870595 0.023449 0.500000 
69 1 0.890525 0.023674 0.500000 
70 1 0.910459 0.023884 0.500000 
71 1 0.930398 0.024080 0.500000 
72 1 0.950341 0.024267 0.500000 
73 1 0.970290 0.024443 0.500000 
74 1 0.990243 0.024606 0.500000 
75 1 0.011983 0.033545 0.500000 
76 1 0.032014 0.034148 0.500000 
77 1 0.021650 0.050615 0.500000 
78 1 0.052044 0.034760 0.500000 
79 1 0.041680 0.051227 0.500000 
80 1 0.072075 0.035381 0.500000 
81 1 0.061715 0.051847 0.500000 
82 1 0.092107 0.036012 0.500000 
83 1 0.081784 0.052472 0.500000 
84 1 0.112138 0.036650 0.500000 
85 1 0.132168 0.037297 0.500000 
86 1 0.152197 0.037952 0.500000 
87 1 0.172226 0.038617 0.500000 
88 1 0.192251 0.039288 0.500000 
89 1 0.212274 0.039967 0.500000 
90 1 0.232293 0.040654 0.500000 
91 1 0.252309 0.041345 0.500000 
92 1 0.272318 0.042042 0.500000 
93 1 0.292324 0.042743 0.500000 
94 1 0.312323 0.043447 0.500000 
95 1 0.332314 0.044150 0.500000 
96 1 0.352297 0.044856 0.500000 
97 1 0.372273 0.045557 0.500000 
98 1 0.392240 0.046254 0.500000 
99 1 0.412198 0.046944 0.500000 
100 1 0.432147 0.047626 0.500000 
101 1 0.452087 0.048297 0.500000 
102 1 0.472018 0.048954 0.500000 
103 1 0.502167 0.032896 0.500000 
104 1 0.491940 0.049595 0.500000 
105 1 0.522078 0.033498 0.500000 
106 1 0.511855 0.050220 0.500000 
107 1 0.541983 0.034081 0.500000 
108 1 0.531762 0.050823 0.500000 
109 1 0.561882 0.034643 0.500000 
110 1 0.551663 0.051406 0.500000 
111 1 0.581777 0.035184 0.500000 
112 1 0.571560 0.051966 0.500000 
113 1 0.601668 0.035702 0.500000 
114 1 0.591452 0.052503 0.500000 
115 1 0.621558 0.036195 0.500000 
116 1 0.641446 0.036666 0.500000 
117 1 0.661334 0.037110 0.500000 
118 1 0.681223 0.037533 0.500000 
119 1 0.701115 0.037931 0.500000 
120 1 0.721007 0.038307 0.500000 
121 1 0.740905 0.038660 0.500000 
122 1 0.760806 0.038993 0.500000 
123 1 0.780711 0.039305 0.500000 
124 1 0.800620 0.039597 0.500000 
125 1 0.820536 0.039873 0.500000 
126 1 0.840456 0.040130 0.500000 
127 1 0.860382 0.040369 0.500000 
128 1 0.880312 0.040595 0.500000 
129 1 0.900248 0.040807 0.500000 
130 1 0.920188 0.041005 0.500000 
131 1 0.940134 0.041192 0.500000 
132 1 0.960084 0.041368 0.500000 
133 1 0.980040 0.041531 0.500000 
134 1 1.000000 0.041686 0.500000 
135 1 0.011275 0.067077 0.500000 
136 1 0.031308 0.067688 0.500000 
137 1 0.051342 0.068307 0.500000 
138 1 0.071376 0.068936 0.500000 
139 1 0.091452 0.069557 0.500000 
140 1 0.101848 0.053122 0.500000 
141 1 0.111494 0.070258 0.500000 
142 1 0.121871 0.053783 0.500000 
143 1 0.131499 0.070965 0.500000 
144 1 0.141873 0.054453 0.500000 
145 1 0.151509 0.071619 0.500000 
146 1 0.161876 0.055116 0.500000 
147 1 0.171501 0.072297 0.500000 
148 1 0.181863 0.055793 0.500000 
149 1 0.201871 0.056472 0.500000 
150 1 0.221890 0.057131 0.500000 
151 1 0.241925 0.057806 0.500000 
152 1 0.261945 0.058523 0.500000 
153 1 0.281964 0.059245 0.500000 
154 1 0.301976 0.059984 0.500000 
155 1 0.321968 0.060694 0.500000 
156 1 0.341943 0.061426 0.500000 
157 1 0.361897 0.062176 0.500000 
158 1 0.381863 0.062886 0.500000 
159 1 0.401854 0.063566 0.500000 
160 1 0.421806 0.064263 0.500000 
161 1 0.441737 0.064954 0.500000 
162 1 0.461689 0.065622 0.500000 
163 1 0.481614 0.066288 0.500000 
164 1 0.501524 0.066897 0.500000 
165 1 0.521443 0.067505 0.500000 
166 1 0.541373 0.068119 0.500000 
167 1 0.561274 0.068691 0.500000 
168 1 0.581159 0.069250 0.500000 
169 1 0.601051 0.069813 0.500000 
170 1 0.611341 0.053013 0.500000 
171 1 0.620966 0.070289 0.500000 
172 1 0.631230 0.053499 0.500000 
173 1 0.640868 0.070743 0.500000 
174 1 0.651117 0.053960 0.500000 
175 1 0.671006 0.054396 0.500000 
176 1 0.660762 0.071213 0.500000 
177 1 0.690897 0.054806 0.500000 
178 1 0.680666 0.071626 0.500000 
179 1 0.710789 0.055192 0.500000 
180 1 0.700591 0.072078 0.500000 
181 1 0.730685 0.055554 0.500000 
182 1 0.720492 0.072488 0.500000 
183 1 0.750586 0.055894 0.500000 
184 1 0.770490 0.056213 0.500000 
185 1 0.790400 0.056511 0.500000 
186 1 0.810316 0.056789 0.500000 
187 1 0.830238 0.057049 0.500000 
188 1 0.850164 0.057294 0.500000 
189 1 0.870095 0.057522 0.500000 
190 1 0.890032 0.057734 0.500000 
191 1 0.909975 0.057934 0.500000 
192 1 0.929922 0.058120 0.500000 
193 1 0.949875 0.058294 0.500000 
194 1 0.969833 0.058458 0.500000 
195 1 0.989796 0.058613 0.500000 
196 1 0.020924 0.084144 0.500000 
197 1 0.040959 0.084763 0.500000 
198 1 0.060994 0.085390 0.500000 
199 1 0.081035 0.085998 0.500000 
200 1 0.101058 0.086686 0.500000 
201 1 0.121076 0.087424 0.500000 
202 1 0.141124 0.088122 0.500000 
203 1 0.161145 0.088799 0.500000 
204 1 0.191507 0.072960 0.500000 
205 1 0.181168 0.089446 0.500000 
206 1 0.211548 0.073623 0.500000 
207 1 0.201214 0.090106 0.500000 
208 1 0.221259 0.090779 0.500000 
209 1 0.231586 0.074287 0.500000 
210 1 0.241262 0.091512 0.500000 
211 1 0.251595 0.075014 0.500000 
212 1 0.261282 0.092235 0.500000 
213 1 0.271616 0.075750 0.500000 
214 1 0.291632 0.076505 0.500000 
215 1 0.311646 0.077248 0.500000 
216 1 0.331615 0.077987 0.500000 
217 1 0.351572 0.078745 0.500000 
218 1 0.371564 0.079475 0.500000 
219 1 0.391532 0.080157 0.500000 
220 1 0.411469 0.080882 0.500000 
221 1 0.431426 0.081618 0.500000 
222 1 0.451388 0.082294 0.500000 
223 1 0.471320 0.082973 0.500000 
224 1 0.491274 0.083609 0.500000 
225 1 0.511216 0.084232 0.500000 
226 1 0.531120 0.084815 0.500000 
227 1 0.551026 0.085415 0.500000 
228 1 0.570921 0.085999 0.500000 
229 1 0.590801 0.086555 0.500000 
230 1 0.610694 0.087064 0.500000 
231 1 0.630597 0.087563 0.500000 
232 1 0.650491 0.088022 0.500000 
233 1 0.670407 0.088475 0.500000 
234 1 0.690310 0.088883 0.500000 
235 1 0.710235 0.089334 0.500000 
236 1 0.730162 0.089725 0.500000 
237 1 0.740391 0.072794 0.500000 
238 1 0.750092 0.090004 0.500000 
239 1 0.760321 0.073089 0.500000 
240 1 0.770015 0.090322 0.500000 
241 1 0.780236 0.073428 0.500000 
242 1 0.789934 0.090649 0.500000 
243 1 0.800142 0.073741 0.500000 
244 1 0.809846 0.090962 0.500000 
245 1 0.820048 0.074044 0.500000 
246 1 0.829775 0.091245 0.500000 
247 1 0.839959 0.074243 0.500000 
248 1 0.849701 0.091409 0.500000 
249 1 0.859901 0.074447 0.500000 
250 1 0.869650 0.091570 0.500000 
251 1 0.879845 0.074644 0.500000 
252 1 0.889580 0.091807 0.500000 
253 1 0.899741 0.074876 0.500000 
254 1 0.909507 0.091988 0.500000 
255 1 0.919663 0.075044 0.500000 
256 1 0.929433 0.092168 0.500000 
257 1 0.939623 0.075220 0.500000 
258 1 0.949407 0.092323 0.500000 
259 1 0.959621 0.075390 0.500000 
260 1 0.979588 0.075542 0.500000 
261 1 0.999557 0.075685 0.500000 
262 1 0.010532 0.100598 0.500000 
263 1 0.030566 0.101214 0.500000 
264 1 0.050602 0.101839 0.500000 
265 1 0.070640 0.102476 0.500000 
266 1 0.090646 0.103107 0.500000 
267 1 0.110675 0.103827 0.500000 
268 1 0.130731 0.104559 0.500000 
269 1 0.150790 0.105277 0.500000 
270 1 0.170833 0.105936 0.500000 
271 1 0.190863 0.106584 0.500000 
272 1 0.210896 0.107273 0.500000 
273 1 0.230913 0.107995 0.500000 
274 1 0.250942 0.108698 0.500000 
275 1 0.270958 0.109443 0.500000 
276 1 0.281322 0.092993 0.500000 
277 1 0.290959 0.110245 0.500000 
278 1 0.301340 0.093775 0.500000 
279 1 0.310957 0.111053 0.500000 
280 1 0.321318 0.094551 0.500000 
281 1 0.330952 0.111866 0.500000 
282 1 0.341284 0.095313 0.500000 
283 1 0.361277 0.096027 0.500000 
284 1 0.381274 0.096770 0.500000 
285 1 0.401227 0.097517 0.500000 
286 1 0.421174 0.098238 0.500000 
287 1 0.441136 0.098942 0.500000 
288 1 0.461070 0.099636 0.500000 
289 1 0.481014 0.100278 0.500000 
290 1 0.500978 0.100923 0.500000 
291 1 0.520928 0.101535 0.500000 
292 1 0.540838 0.102114 0.500000 
293 1 0.560731 0.102735 0.500000 
294 1 0.580618 0.103325 0.500000 
295 1 0.600471 0.103873 0.500000 
296 1 0.620340 0.104363 0.500000 
297 1 0.640229 0.104851 0.500000 
298 1 0.660125 0.105307 0.500000 
299 1 0.680053 0.105757 0.500000 
300 1 0.699975 0.106149 0.500000 
301 1 0.719916 0.106570 0.500000 
302 1 0.739860 0.106931 0.500000 
303 1 0.759754 0.107243 0.500000 
304 1 0.779681 0.107555 0.500000 
305 1 0.799611 0.107864 0.500000 
306 1 0.819554 0.108154 0.500000 
307 1 0.839494 0.108390 0.500000 
308 1 0.859412 0.108534 0.500000 
309 1 0.879337 0.108695 0.500000 
310 1 0.899303 0.108901 0.500000 
311 1 0.919245 0.109122 0.500000 
312 1 0.939182 0.109286 0.500000 
313 1 0.969375 0.092475 0.500000 
314 1 0.959160 0.109410 0.500000 
315 1 0.989349 0.092617 0.500000 
316 1 0.979136 0.109550 0.500000 
317 1 0.999117 0.109681 0.500000 
318 1 0.020165 0.117663 0.500000 
319 1 0.040201 0.118287 0.500000 
320 1 0.060239 0.118920 0.500000 
321 1 0.080285 0.119577 0.500000 
322 1 0.100295 0.120236 0.500000 
323 1 0.120337 0.120953 0.500000 
324 1 0.140394 0.121682 0.500000 
325 1 0.160451 0.122387 0.500000 
326 1 0.180480 0.123060 0.500000 
327 1 0.200498 0.123749 0.500000 
328 1 0.220532 0.124455 0.500000 
329 1 0.240580 0.125155 0.500000 
330 1 0.260583 0.125905 0.500000 
331 1 0.280590 0.126709 0.500000 
332 1 0.300596 0.127541 0.500000 
333 1 0.320604 0.128368 0.500000 
334 1 0.340634 0.129170 0.500000 
335 1 0.350955 0.112620 0.500000 
336 1 0.360638 0.129940 0.500000 
337 1 0.370947 0.113354 0.500000 
338 1 0.380606 0.130700 0.500000 
339 1 0.390932 0.114118 0.500000 
340 1 0.400568 0.131451 0.500000 
341 1 0.410909 0.114859 0.500000 
342 1 0.420519 0.132189 0.500000 
343 1 0.430845 0.115561 0.500000 
344 1 0.450777 0.116245 0.500000 
345 1 0.470742 0.116921 0.500000 
346 1 0.490714 0.117589 0.500000 
347 1 0.510675 0.118226 0.500000 
348 1 0.530599 0.118818 0.500000 
349 1 0.550492 0.119459 0.500000 
350 1 0.570385 0.120075 0.500000 
351 1 0.590262 0.120691 0.500000 
352 1 0.610142 0.121203 0.500000 
353 1 0.630012 0.121688 0.500000 
354 1 0.649881 0.122162 0.500000 
355 1 0.669776 0.122624 0.500000 
356 1 0.689697 0.123047 0.500000 
357 1 0.709625 0.123415 0.500000 
358 1 0.729588 0.123775 0.500000 
359 1 0.749515 0.124167 0.500000 
360 1 0.769444 0.124457 0.500000 
361 1 0.789406 0.124792 0.500000 
362 1 0.809368 0.125052 0.500000 
363 1 0.829347 0.125282 0.500000 
364 1 0.849295 0.125477 0.500000 
365 1 0.869182 0.125645 0.500000 
366 1 0.889068 0.125798 0.500000 
367 1 0.908988 0.126021 0.500000 
368 1 0.928937 0.126238 0.500000 
369 1 0.948940 0.126349 0.500000 
370 1 0.968919 0.126487 0.500000 
371 1 0.988905 0.126616 0.500000 
372 1 0.009754 0.134110 0.500000 
373 1 0.029790 0.134729 0.500000 
374 1 0.019367 0.151171 0.500000 
375 1 0.049825 0.135360 0.500000 
376 1 0.039403 0.151799 0.500000 
377 1 0.069865 0.136003 0.500000 
378 1 0.089921 0.136691 0.500000 
379 1 0.109971 0.137363 0.500000 
380 1 0.130017 0.138085 0.500000 
381 1 0.150049 0.138790 0.500000 
382 1 0.170075 0.139494 0.500000 
383 1 0.190104 0.140201 0.500000 
384 1 0.210152 0.140905 0.500000 
385 1 0.230211 0.141598 0.500000 
386 1 0.250249 0.142374 0.500000 
387 1 0.270247 0.143190 0.500000 
388 1 0.290243 0.144019 0.500000 
389 1 0.310273 0.144833 0.500000 
390 1 0.330309 0.145658 0.500000 
391 1 0.350326 0.146472 0.500000 
392 1 0.370316 0.147262 0.500000 
393 1 0.390286 0.148040 0.500000 
394 1 0.410240 0.148797 0.500000 
395 1 0.440461 0.132871 0.500000 
396 1 0.430163 0.149510 0.500000 
397 1 0.460414 0.133550 0.500000 
398 1 0.450085 0.150191 0.500000 
399 1 0.480373 0.134228 0.500000 
400 1 0.470033 0.150883 0.500000 
401 1 0.500326 0.134882 0.500000 
402 1 0.489987 0.151551 0.500000 
403 1 0.520258 0.135529 0.500000 
404 1 0.540163 0.136178 0.500000 
405 1 0.560066 0.136812 0.500000 
406 1 0.579958 0.137441 0.500000 
407 1 0.599865 0.138034 0.500000 
408 1 0.619747 0.138547 0.500000 
409 1 0.639634 0.139039 0.500000 
410 1 0.659532 0.139495 0.500000 
411 1 0.679438 0.139927 0.500000 
412 1 0.699343 0.140307 0.500000 
413 1 0.719263 0.140635 0.500000 
414 1 0.739213 0.141024 0.500000 
415 1 0.759188 0.141372 0.500000 
416 1 0.779141 0.141663 0.500000 
417 1 0.799123 0.141977 0.500000 
418 1 0.819097 0.142193 0.500000 
419 1 0.839061 0.142392 0.500000 
420 1 0.858979 0.142593 0.500000 
421 1 0.878883 0.142752 0.500000 
422 1 0.898787 0.142922 0.500000 
423 1 0.918745 0.143147 0.500000 
424 1 0.938746 0.143257 0.500000 
425 1 0.958701 0.143428 0.500000 
426 1 0.978689 0.143555 0.500000 
427 1 0.998682 0.143674 0.500000 
428 1 0.008938 0.167610 0.500000 
429 1 0.028972 0.168234 0.500000 
430 1 0.049008 0.168868 0.500000 
431 1 0.059442 0.152437 0.500000 
432 1 0.069047 0.169517 0.500000 
433 1 0.079458 0.153091 0.500000 
434 1 0.089080 0.170184 0.500000 
435 1 0.099533 0.153787 0.500000 
436 1 0.109139 0.170910 0.500000 
437 1 0.119604 0.154500 0.500000 
438 1 0.139653 0.155212 0.500000 
439 1 0.129188 0.171621 0.500000 
440 1 0.159665 0.155916 0.500000 
441 1 0.179686 0.156631 0.500000 
442 1 0.199737 0.157341 0.500000 
443 1 0.219808 0.158042 0.500000 
444 1 0.239861 0.158804 0.500000 
445 1 0.259885 0.159649 0.500000 
446 1 0.279894 0.160477 0.500000 
447 1 0.299910 0.161276 0.500000 
448 1 0.319924 0.162110 0.500000 
449 1 0.339939 0.162962 0.500000 
450 1 0.359938 0.163786 0.500000 
451 1 0.379932 0.164587 0.500000 
452 1 0.399898 0.165368 0.500000 
453 1 0.419841 0.166118 0.500000 
454 1 0.439773 0.166845 0.500000 
455 1 0.459697 0.167550 0.500000 
456 1 0.479639 0.168251 0.500000 
457 1 0.499563 0.168962 0.500000 
458 1 0.509903 0.152237 0.500000 
459 1 0.519477 0.169651 0.500000 
460 1 0.529806 0.152896 0.500000 
461 1 0.539361 0.170294 0.500000 
462 1 0.549713 0.153546 0.500000 
463 1 0.559255 0.170942 0.500000 
464 1 0.569609 0.154192 0.500000 
465 1 0.579168 0.171584 0.500000 
466 1 0.589509 0.154804 0.500000 
467 1 0.609423 0.155375 0.500000 
468 1 0.629315 0.155869 0.500000 
469 1 0.649234 0.156356 0.500000 
470 1 0.669178 0.156775 0.500000 
471 1 0.689108 0.157184 0.500000 
472 1 0.709038 0.157572 0.500000 
473 1 0.728958 0.157894 0.500000 
474 1 0.748912 0.158253 0.500000 
475 1 0.768868 0.158585 0.500000 
476 1 0.788782 0.158855 0.500000 
477 1 0.808715 0.159135 0.500000 
478 1 0.828683 0.159339 0.500000 
479 1 0.848662 0.159531 0.500000 
480 1 0.868626 0.159707 0.500000 
481 1 0.888558 0.159856 0.500000 
482 1 0.908518 0.160017 0.500000 
483 1 0.928529 0.160201 0.500000 
484 1 0.948477 0.160370 0.500000 
485 1 0.968470 0.160496 0.500000 
486 1 0.988467 0.160611 0.500000 
487 1 0.018532 0.184668 0.500000 
488 1 0.038566 0.185299 0.500000 
489 1 0.058602 0.185942 0.500000 
490 1 0.078637 0.186595 0.500000 
491 1 0.098683 0.187290 0.500000 
492 1 0.118730 0.188034 0.500000 
493 1 0.138772 0.188730 0.500000 
494 1 0.149228 0.172333 0.500000 
495 1 0.158828 0.189466 0.500000 
496 1 0.169265 0.173063 0.500000 
497 1 0.178895 0.190221 0.500000 
498 1 0.189314 0.173784 0.500000 
499 1 0.198944 0.190951 0.500000 
500 1 0.209363 0.174493 0.500000 
501 1 0.218979 0.191684 0.500000 
502 1 0.229397 0.175229 0.500000 
503 1 0.249442 0.176049 0.500000 
504 1 0.269480 0.176885 0.500000 
505 1 0.289497 0.177706 0.500000 
506 1 0.309508 0.178558 0.500000 
507 1 0.329522 0.179422 0.500000 
508 1 0.349537 0.180277 0.500000 
509 1 0.369520 0.181109 0.500000 
510 1 0.389481 0.181926 0.500000 
511 1 0.409425 0.182723 0.500000 
512 1 0.429371 0.183473 0.500000 
513 1 0.449331 0.184218 0.500000 
514 1 0.469272 0.184945 0.500000 
515 1 0.489190 0.185683 0.500000 
516 1 0.509100 0.186385 0.500000 
517 1 0.529011 0.187079 0.500000 
518 1 0.548915 0.187708 0.500000 
519 1 0.568832 0.188342 0.500000 
520 1 0.588743 0.188958 0.500000 
521 1 0.599090 0.172162 0.500000 
522 1 0.608647 0.189526 0.500000 
523 1 0.619001 0.172705 0.500000 
524 1 0.628560 0.190067 0.500000 
525 1 0.638896 0.173192 0.500000 
526 1 0.648489 0.190499 0.500000 
527 1 0.658830 0.173624 0.500000 
528 1 0.668386 0.190926 0.500000 
529 1 0.678739 0.174052 0.500000 
530 1 0.688300 0.191335 0.500000 
531 1 0.698685 0.174451 0.500000 
532 1 0.718674 0.174817 0.500000 
533 1 0.738605 0.175132 0.500000 
534 1 0.758558 0.175486 0.500000 
535 1 0.778511 0.175795 0.500000 
536 1 0.798455 0.176042 0.500000 
537 1 0.818420 0.176297 0.500000 
538 1 0.838377 0.176494 0.500000 
539 1 0.858359 0.176648 0.500000 
540 1 0.878343 0.176816 0.500000 
541 1 0.898297 0.176963 0.500000 
542 1 0.918276 0.177112 0.500000 
543 1 0.938270 0.177307 0.500000 
544 1 0.958249 0.177440 0.500000 
545 1 0.978251 0.177553 0.500000 
546 1 0.998258 0.177659 0.500000 
547 1 0.008083 0.201103 0.500000 
548 1 0.028113 0.201727 0.500000 
549 1 0.048147 0.202367 0.500000 
550 1 0.068185 0.203017 0.500000 
551 1 0.088204 0.203670 0.500000 
552 1 0.108263 0.204393 0.500000 
553 1 0.128343 0.205140 0.500000 
554 1 0.148401 0.205877 0.500000 
555 1 0.168458 0.206627 0.500000 
556 1 0.188528 0.207382 0.500000 
557 1 0.208591 0.208133 0.500000 
558 1 0.239016 0.192456 0.500000 
559 1 0.228621 0.208905 0.500000 
560 1 0.259065 0.193286 0.500000 
561 1 0.248640 0.209712 0.500000 
562 1 0.279082 0.194141 0.500000 
563 1 0.268673 0.210566 0.500000 
564 1 0.299090 0.194991 0.500000 
565 1 0.288714 0.211429 0.500000 
566 1 0.319124 0.195865 0.500000 
567 1 0.339134 0.196745 0.500000 
568 1 0.359117 0.197623 0.500000 
569 1 0.379106 0.198485 0.500000 
570 1 0.399053 0.199340 0.500000 
571 1 0.419012 0.200117 0.500000 
572 1 0.438952 0.200876 0.500000 
573 1 0.458876 0.201610 0.500000 
574 1 0.478828 0.202358 0.500000 
575 1 0.498784 0.203082 0.500000 
576 1 0.518696 0.203795 0.500000 
577 1 0.538598 0.204489 0.500000 
578 1 0.558505 0.205121 0.500000 
579 1 0.578406 0.205746 0.500000 
580 1 0.598310 0.206317 0.500000 
581 1 0.618220 0.206898 0.500000 
582 1 0.638165 0.207400 0.500000 
583 1 0.658079 0.207825 0.500000 
584 1 0.678000 0.208208 0.500000 
585 1 0.708269 0.191693 0.500000 
586 1 0.697974 0.208579 0.500000 
587 1 0.728231 0.192056 0.500000 
588 1 0.717951 0.208930 0.500000 
589 1 0.748181 0.192362 0.500000 
590 1 0.737927 0.209280 0.500000 
591 1 0.768174 0.192717 0.500000 
592 1 0.757896 0.209604 0.500000 
593 1 0.788178 0.192976 0.500000 
594 1 0.777898 0.209895 0.500000 
595 1 0.808145 0.193211 0.500000 
596 1 0.797873 0.210160 0.500000 
597 1 0.828105 0.193439 0.500000 
598 1 0.817827 0.210345 0.500000 
599 1 0.848044 0.193617 0.500000 
600 1 0.837782 0.210571 0.500000 
601 1 0.868042 0.193761 0.500000 
602 1 0.857786 0.210720 0.500000 
603 1 0.888061 0.193933 0.500000 
604 1 0.877801 0.210901 0.500000 
605 1 0.908059 0.194077 0.500000 
606 1 0.897817 0.211071 0.500000 
607 1 0.928036 0.194214 0.500000 
608 1 0.917795 0.211196 0.500000 
609 1 0.948021 0.194385 0.500000 
610 1 0.937763 0.211316 0.500000 
611 1 0.957807 0.211443 0.500000 
612 1 0.968031 0.194496 0.500000 
613 1 0.977825 0.211543 0.500000 
614 1 0.988043 0.194599 0.500000 
615 1 0.997847 0.211634 0.500000 
616 1 0.017654 0.218157 0.500000 
617 1 0.037684 0.218790 0.500000 
618 1 0.057718 0.219436 0.500000 
619 1 0.077770 0.220106 0.500000 
620 1 0.097806 0.220763 0.500000 
621 1 0.117868 0.221523 0.500000 
622 1 0.137938 0.222295 0.500000 
623 1 0.158012 0.223051 0.500000 
624 1 0.178076 0.223791 0.500000 
625 1 0.198142 0.224549 0.500000 
626 1 0.218191 0.225335 0.500000 
627 1 0.238222 0.226143 0.500000 
628 1 0.258249 0.226977 0.500000 
629 1 0.278292 0.227836 0.500000 
630 1 0.298327 0.228747 0.500000 
631 1 0.308731 0.212306 0.500000 
632 1 0.318329 0.229673 0.500000 
633 1 0.328735 0.213208 0.500000 
634 1 0.338324 0.230594 0.500000 
635 1 0.348747 0.214128 0.500000 
636 1 0.358339 0.231544 0.500000 
637 1 0.368733 0.215032 0.500000 
638 1 0.388722 0.215931 0.500000 
639 1 0.408697 0.216723 0.500000 
640 1 0.428634 0.217509 0.500000 
641 1 0.448552 0.218304 0.500000 
642 1 0.468474 0.219025 0.500000 
643 1 0.488436 0.219756 0.500000 
644 1 0.508372 0.220490 0.500000 
645 1 0.528291 0.221208 0.500000 
646 1 0.548207 0.221892 0.500000 
647 1 0.568104 0.222554 0.500000 
648 1 0.587992 0.223141 0.500000 
649 1 0.607889 0.223719 0.500000 
650 1 0.627804 0.224233 0.500000 
651 1 0.647727 0.224720 0.500000 
652 1 0.667657 0.225114 0.500000 
653 1 0.687639 0.225461 0.500000 
654 1 0.707629 0.225802 0.500000 
655 1 0.727598 0.226153 0.500000 
656 1 0.747617 0.226505 0.500000 
657 1 0.767629 0.226780 0.500000 
658 1 0.787637 0.227089 0.500000 
659 1 0.807629 0.227316 0.500000 
660 1 0.827568 0.227491 0.500000 
661 1 0.847561 0.227672 0.500000 
662 1 0.867558 0.227868 0.500000 
663 1 0.887566 0.228027 0.500000 
664 1 0.907549 0.228209 0.500000 
665 1 0.927527 0.228311 0.500000 
666 1 0.947580 0.228392 0.500000 
667 1 0.967605 0.228489 0.500000 
668 1 0.987634 0.228577 0.500000 
669 1 0.007189 0.234587 0.500000 
670 1 0.027214 0.235215 0.500000 
671 1 0.047243 0.235854 0.500000 
672 1 0.067275 0.236508 0.500000 
673 1 0.087333 0.237205 0.500000 
674 1 0.107365 0.237925 0.500000 
675 1 0.127433 0.238707 0.500000 
676 1 0.147515 0.239454 0.500000 
677 1 0.167594 0.240224 0.500000 
678 1 0.187648 0.240975 0.500000 
679 1 0.207707 0.241739 0.500000 
680 1 0.227777 0.242533 0.500000 
681 1 0.247829 0.243378 0.500000 
682 1 0.267876 0.244254 0.500000 
683 1 0.287911 0.245161 0.500000 
684 1 0.307919 0.246122 0.500000 
685 1 0.327924 0.247049 0.500000 
686 1 0.347939 0.247972 0.500000 
687 1 0.378352 0.232432 0.500000 
688 1 0.367956 0.248928 0.500000 
689 1 0.398341 0.233291 0.500000 
690 1 0.387931 0.249844 0.500000 
691 1 0.418277 0.234125 0.500000 
692 1 0.407886 0.250719 0.500000 
693 1 0.438202 0.234952 0.500000 
694 1 0.427855 0.251572 0.500000 
695 1 0.458169 0.235730 0.500000 
696 1 0.478111 0.236488 0.500000 
697 1 0.498014 0.237243 0.500000 
698 1 0.517935 0.237936 0.500000 
699 1 0.537878 0.238647 0.500000 
700 1 0.557792 0.239340 0.500000 
701 1 0.577671 0.239958 0.500000 
702 1 0.597562 0.240538 0.500000 
703 1 0.617487 0.241117 0.500000 
704 1 0.637407 0.241582 0.500000 
705 1 0.657336 0.242028 0.500000 
706 1 0.677305 0.242382 0.500000 
707 1 0.697285 0.242705 0.500000 
708 1 0.717257 0.243037 0.500000 
709 1 0.737249 0.243352 0.500000 
710 1 0.757280 0.243687 0.500000 
711 1 0.777289 0.243957 0.500000 
712 1 0.797328 0.244256 0.500000 
713 1 0.817312 0.244487 0.500000 
714 1 0.837297 0.244614 0.500000 
715 1 0.857318 0.244790 0.500000 
716 1 0.877322 0.244963 0.500000 
717 1 0.897301 0.245152 0.500000 
718 1 0.917322 0.245285 0.500000 
719 1 0.937336 0.245364 0.500000 
720 1 0.957383 0.245436 0.500000 
721 1 0.977417 0.245522 0.500000 
722 1 0.997455 0.245600 0.500000 
723 1 0.016737 0.251640 0.500000 
724 1 0.006256 0.268068 0.500000 
725 1 0.036760 0.252274 0.500000 
726 1 0.026272 0.268696 0.500000 
727 1 0.056787 0.252921 0.500000 
728 1 0.046292 0.269335 0.500000 
729 1 0.076830 0.253610 0.500000 
730 1 0.066319 0.269991 0.500000 
731 1 0.096870 0.254354 0.500000 
732 1 0.086348 0.270721 0.500000 
733 1 0.116916 0.255092 0.500000 
734 1 0.137005 0.255850 0.500000 
735 1 0.157075 0.256617 0.500000 
736 1 0.177172 0.257395 0.500000 
737 1 0.197258 0.258160 0.500000 
738 1 0.217339 0.258930 0.500000 
739 1 0.237380 0.259772 0.500000 
740 1 0.257409 0.260660 0.500000 
741 1 0.277444 0.261564 0.500000 
742 1 0.297472 0.262517 0.500000 
743 1 0.317521 0.263444 0.500000 
744 1 0.337567 0.264405 0.500000 
745 1 0.357565 0.265407 0.500000 
746 1 0.377565 0.266382 0.500000 
747 1 0.397562 0.267321 0.500000 
748 1 0.417537 0.268176 0.500000 
749 1 0.437486 0.269046 0.500000 
750 1 0.447825 0.252397 0.500000 
751 1 0.457414 0.269923 0.500000 
752 1 0.467749 0.253219 0.500000 
753 1 0.477349 0.270678 0.500000 
754 1 0.487676 0.253999 0.500000 
755 1 0.507588 0.254686 0.500000 
756 1 0.527484 0.255389 0.500000 
757 1 0.547416 0.256089 0.500000 
758 1 0.567363 0.256761 0.500000 
759 1 0.587256 0.257370 0.500000 
760 1 0.607159 0.257971 0.500000 
761 1 0.627119 0.258491 0.500000 
762 1 0.647057 0.258924 0.500000 
763 1 0.667027 0.259305 0.500000 
764 1 0.686997 0.259627 0.500000 
765 1 0.706997 0.259922 0.500000 
766 1 0.727004 0.260262 0.500000 
767 1 0.747024 0.260554 0.500000 
768 1 0.767036 0.260877 0.500000 
769 1 0.787050 0.261148 0.500000 
770 1 0.807098 0.261429 0.500000 
771 1 0.827104 0.261606 0.500000 
772 1 0.847112 0.261718 0.500000 
773 1 0.867117 0.261866 0.500000 
774 1 0.887116 0.262069 0.500000 
775 1 0.907116 0.262211 0.500000 
776 1 0.927143 0.262316 0.500000 
777 1 0.947159 0.262387 0.500000 
778 1 0.967200 0.262468 0.500000 
779 1 0.987245 0.262544 0.500000 
780 1 0.015779 0.285121 0.500000 
781 1 0.035792 0.285753 0.500000 
782 1 0.055810 0.286400 0.500000 
783 1 0.075825 0.287077 0.500000 
784 1 0.095867 0.287830 0.500000 
785 1 0.106404 0.271476 0.500000 
786 1 0.115934 0.288554 0.500000 
787 1 0.126476 0.272209 0.500000 
788 1 0.136023 0.289340 0.500000 
789 1 0.146545 0.272996 0.500000 
790 1 0.156101 0.290104 0.500000 
791 1 0.166635 0.273755 0.500000 
792 1 0.176200 0.290874 0.500000 
793 1 0.186737 0.274539 0.500000 
794 1 0.206832 0.275327 0.500000 
795 1 0.226890 0.276179 0.500000 
796 1 0.246921 0.277051 0.500000 
797 1 0.266957 0.277950 0.500000 
798 1 0.286996 0.278877 0.500000 
799 1 0.307063 0.279808 0.500000 
800 1 0.327099 0.280791 0.500000 
801 1 0.347126 0.281852 0.500000 
802 1 0.367156 0.282872 0.500000 
803 1 0.387177 0.283826 0.500000 
804 1 0.407194 0.284773 0.500000 
805 1 0.427123 0.285672 0.500000 
806 1 0.447055 0.286556 0.500000 
807 1 0.467030 0.287362 0.500000 
808 1 0.497276 0.271420 0.500000 
809 1 0.486975 0.288131 0.500000 
810 1 0.506895 0.288875 0.500000 
811 1 0.517170 0.272140 0.500000 
812 1 0.526814 0.289596 0.500000 
813 1 0.537089 0.272865 0.500000 
814 1 0.546717 0.290351 0.500000 
815 1 0.556988 0.273543 0.500000 
816 1 0.576907 0.274192 0.500000 
817 1 0.596832 0.274793 0.500000 
818 1 0.616781 0.275331 0.500000 
819 1 0.636725 0.275826 0.500000 
820 1 0.656701 0.276186 0.500000 
821 1 0.676730 0.276549 0.500000 
822 1 0.696724 0.276840 0.500000 
823 1 0.716721 0.277169 0.500000 
824 1 0.736774 0.277470 0.500000 
825 1 0.756819 0.277773 0.500000 
826 1 0.776854 0.278078 0.500000 
827 1 0.796885 0.278323 0.500000 
828 1 0.816914 0.278578 0.500000 
829 1 0.836934 0.278707 0.500000 
830 1 0.856899 0.278841 0.500000 
831 1 0.876880 0.278974 0.500000 
832 1 0.896916 0.279133 0.500000 
833 1 0.916944 0.279242 0.500000 
834 1 0.936966 0.279344 0.500000 
835 1 0.956982 0.279417 0.500000 
836 1 0.977036 0.279488 0.500000 
837 1 0.997089 0.279555 0.500000 
838 1 0.005284 0.301547 0.500000 
839 1 0.025288 0.302175 0.500000 
840 1 0.045299 0.302815 0.500000 
841 1 0.065313 0.303468 0.500000 
842 1 0.085360 0.304197 0.500000 
843 1 0.105430 0.304929 0.500000 
844 1 0.125496 0.305647 0.500000 
845 1 0.145586 0.306451 0.500000 
846 1 0.165673 0.307187 0.500000 
847 1 0.196283 0.291693 0.500000 
848 1 0.185774 0.308022 0.500000 
849 1 0.216342 0.292531 0.500000 
850 1 0.205830 0.308853 0.500000 
851 1 0.236399 0.293417 0.500000 
852 1 0.225881 0.309728 0.500000 
853 1 0.256465 0.294309 0.500000 
854 1 0.245963 0.310639 0.500000 
855 1 0.276520 0.295227 0.500000 
856 1 0.266027 0.311579 0.500000 
857 1 0.296597 0.296165 0.500000 
858 1 0.316640 0.297176 0.500000 
859 1 0.336662 0.298247 0.500000 
860 1 0.356712 0.299286 0.500000 
861 1 0.376755 0.300320 0.500000 
862 1 0.396735 0.301291 0.500000 
863 1 0.416717 0.302272 0.500000 
864 1 0.436658 0.303184 0.500000 
865 1 0.456622 0.304030 0.500000 
866 1 0.476555 0.304884 0.500000 
867 1 0.496479 0.305630 0.500000 
868 1 0.516406 0.306317 0.500000 
869 1 0.536339 0.307087 0.500000 
870 1 0.566626 0.290988 0.500000 
871 1 0.556296 0.307814 0.500000 
872 1 0.586545 0.291623 0.500000 
873 1 0.576222 0.308485 0.500000 
874 1 0.606499 0.292171 0.500000 
875 1 0.596169 0.309076 0.500000 
876 1 0.626455 0.292675 0.500000 
877 1 0.616108 0.309559 0.500000 
878 1 0.646441 0.293103 0.500000 
879 1 0.636094 0.309985 0.500000 
880 1 0.666419 0.293448 0.500000 
881 1 0.686456 0.293797 0.500000 