ITEM: TIMESTEP
1200
ITEM: NUMBER OF ATOMS
2850
ITEM: BOX BOUNDS ss ss pp
-28.0536 28.3253 
-28.9988 28.9984 
-0.5 0.5 
ITEM: ATOMS id type xs ys zs
1 1 0.012661 0.000000 0.500000 
2 1 0.032688 0.000597 0.500000 
3 1 0.052715 0.001202 0.500000 
4 1 0.072742 0.001814 0.500000 
5 1 0.092767 0.002433 0.500000 
6 1 0.112794 0.003060 0.500000 
7 1 0.132817 0.003697 0.500000 
8 1 0.152841 0.004338 0.500000 
9 1 0.172861 0.004988 0.500000 
10 1 0.192879 0.005643 0.500000 
11 1 0.212895 0.006305 0.500000 
12 1 0.232906 0.006973 0.500000 
13 1 0.252912 0.007645 0.500000 
14 1 0.272914 0.008319 0.500000 
15 1 0.292911 0.008997 0.500000 
16 1 0.312901 0.009676 0.500000 
17 1 0.332885 0.010356 0.500000 
18 1 0.352861 0.011033 0.500000 
19 1 0.372830 0.011707 0.500000 
20 1 0.392791 0.012376 0.500000 
21 1 0.022340 0.017073 0.500000 
22 1 0.042369 0.017677 0.500000 
23 1 0.062397 0.018289 0.500000 
24 1 0.082426 0.018911 0.500000 
25 1 0.102455 0.019539 0.500000 
26 1 0.122484 0.020177 0.500000 
27 1 0.142511 0.020822 0.500000 
28 1 0.162536 0.021475 0.500000 
29 1 0.182559 0.022136 0.500000 
30 1 0.202579 0.022803 0.500000 
31 1 0.222596 0.023475 0.500000 
32 1 0.242610 0.024155 0.500000 
33 1 0.262618 0.024839 0.500000 
34 1 0.282622 0.025527 0.500000 
35 1 0.302619 0.026217 0.500000 
36 1 0.322610 0.026908 0.500000 
37 1 0.342593 0.027600 0.500000 
38 1 0.362570 0.028289 0.500000 
39 1 0.382537 0.028974 0.500000 
40 1 0.402497 0.029655 0.500000 
41 1 0.412744 0.013039 0.500000 
42 1 0.422448 0.030326 0.500000 
43 1 0.432688 0.013694 0.500000 
44 1 0.442390 0.030989 0.500000 
45 1 0.452624 0.014337 0.500000 
46 1 0.462324 0.031639 0.500000 
47 1 0.472553 0.014968 0.500000 
48 1 0.482250 0.032276 0.500000 
49 1 0.492474 0.015584 0.500000 
50 1 0.512388 0.016184 0.500000 
51 1 0.532295 0.016766 0.500000 
52 1 0.552198 0.017330 0.500000 
53 1 0.572095 0.017873 0.500000 
54 1 0.591989 0.018396 0.500000 
55 1 0.611880 0.018896 0.500000 
56 1 0.631769 0.019373 0.500000 
57 1 0.651657 0.019829 0.500000 
58 1 0.671546 0.020261 0.500000 
59 1 0.691436 0.020670 0.500000 
60 1 0.711328 0.021058 0.500000 
61 1 0.731222 0.021423 0.500000 
62 1 0.751120 0.021768 0.500000 
63 1 0.771021 0.022094 0.500000 
64 1 0.790927 0.022399 0.500000 
65 1 0.810837 0.022687 0.500000 
66 1 0.830751 0.022958 0.500000 
67 1 0.850671 0.023211 0.500000 
68 1 0.870595 0.023449 0.500000 
69 1 0.890525 0.023674 0.500000 
70 1 0.910459 0.023884 0.500000 
71 1 0.930398 0.024080 0.500000 
72 1 0.950341 0.024267 0.500000 
73 1 0.970290 0.024443 0.500000 
74 1 0.990243 0.024606 0.500000 
75 1 0.011983 0.033545 0.500000 
76 1 0.032014 0.034148 0.500000 
77 1 0.021650 0.050615 0.500000 
78 1 0.052044 0.034760 0.500000 
79 1 0.041680 0.051227 0.500000 
80 1 0.072075 0.035381 0.500000 
81 1 0.061715 0.051847 0.500000 
82 1 0.092107 0.036012 0.500000 
83 1 0.081738 0.052483 0.500000 
84 1 0.112138 0.036650 0.500000 
85 1 0.132168 0.037297 0.500000 
86 1 0.152197 0.037952 0.500000 
87 1 0.172226 0.038617 0.500000 
88 1 0.192251 0.039288 0.500000 
89 1 0.212274 0.039967 0.500000 
90 1 0.232293 0.040654 0.500000 
91 1 0.252309 0.041345 0.500000 
92 1 0.272318 0.042042 0.500000 
93 1 0.292324 0.042743 0.500000 
94 1 0.312323 0.043447 0.500000 
95 1 0.332314 0.044150 0.500000 
96 1 0.352297 0.044856 0.500000 
97 1 0.372273 0.045557 0.500000 
98 1 0.392240 0.046254 0.500000 
99 1 0.412198 0.046944 0.500000 
100 1 0.432147 0.047626 0.500000 
101 1 0.452087 0.048297 0.500000 
102 1 0.472018 0.048954 0.500000 
103 1 0.502167 0.032896 0.500000 
104 1 0.491940 0.049595 0.500000 
105 1 0.522078 0.033498 0.500000 
106 1 0.511855 0.050220 0.500000 
107 1 0.541983 0.034081 0.500000 
108 1 0.531762 0.050823 0.500000 
109 1 0.561882 0.034643 0.500000 
110 1 0.551663 0.051406 0.500000 
111 1 0.581777 0.035184 0.500000 
112 1 0.571560 0.051966 0.500000 
113 1 0.601668 0.035702 0.500000 
114 1 0.591452 0.052503 0.500000 
115 1 0.621558 0.036195 0.500000 
116 1 0.641446 0.036666 0.500000 
117 1 0.661334 0.037110 0.500000 
118 1 0.681223 0.037533 0.500000 
119 1 0.701115 0.037931 0.500000 
120 1 0.721007 0.038307 0.500000 
121 1 0.740905 0.038660 0.500000 
122 1 0.760806 0.038993 0.500000 
123 1 0.780711 0.039305 0.500000 
124 1 0.800620 0.039597 0.500000 
125 1 0.820536 0.039873 0.500000 
126 1 0.840456 0.040130 0.500000 
127 1 0.860382 0.040369 0.500000 
128 1 0.880312 0.040595 0.500000 
129 1 0.900248 0.040807 0.500000 
130 1 0.920188 0.041005 0.500000 
131 1 0.940134 0.041192 0.500000 
132 1 0.960084 0.041368 0.500000 
133 1 0.980040 0.041531 0.500000 
134 1 1.000000 0.041686 0.500000 
135 1 0.011275 0.067077 0.500000 
136 1 0.031308 0.067688 0.500000 
137 1 0.051342 0.068307 0.500000 
138 1 0.071376 0.068936 0.500000 
139 1 0.091399 0.069603 0.500000 
140 1 0.101759 0.053124 0.500000 
141 1 0.111435 0.070247 0.500000 
142 1 0.121806 0.053777 0.500000 
143 1 0.131493 0.070900 0.500000 
144 1 0.141863 0.054434 0.500000 
145 1 0.151549 0.071589 0.500000 
146 1 0.161904 0.055118 0.500000 
147 1 0.171586 0.072317 0.500000 
148 1 0.181932 0.055816 0.500000 
149 1 0.201939 0.056496 0.500000 
150 1 0.221933 0.057175 0.500000 
151 1 0.241931 0.057861 0.500000 
152 1 0.261955 0.058565 0.500000 
153 1 0.281986 0.059271 0.500000 
154 1 0.301983 0.059997 0.500000 
155 1 0.321960 0.060717 0.500000 
156 1 0.341933 0.061430 0.500000 
157 1 0.361917 0.062138 0.500000 
158 1 0.381907 0.062839 0.500000 
159 1 0.401881 0.063532 0.500000 
160 1 0.421835 0.064267 0.500000 
161 1 0.441781 0.064989 0.500000 
162 1 0.461709 0.065672 0.500000 
163 1 0.481614 0.066330 0.500000 
164 1 0.501520 0.066991 0.500000 
165 1 0.521429 0.067618 0.500000 
166 1 0.541327 0.068185 0.500000 
167 1 0.561229 0.068741 0.500000 
168 1 0.581132 0.069293 0.500000 
169 1 0.601030 0.069807 0.500000 
170 1 0.611341 0.053013 0.500000 
171 1 0.620918 0.070293 0.500000 
172 1 0.631230 0.053499 0.500000 
173 1 0.640825 0.070775 0.500000 
174 1 0.651117 0.053960 0.500000 
175 1 0.671006 0.054396 0.500000 
176 1 0.660716 0.071237 0.500000 
177 1 0.690897 0.054806 0.500000 
178 1 0.680613 0.071655 0.500000 
179 1 0.710789 0.055192 0.500000 
180 1 0.700515 0.072042 0.500000 
181 1 0.730685 0.055554 0.500000 
182 1 0.720418 0.072445 0.500000 
183 1 0.750586 0.055894 0.500000 
184 1 0.770490 0.056213 0.500000 
185 1 0.790400 0.056511 0.500000 
186 1 0.810316 0.056789 0.500000 
187 1 0.830238 0.057049 0.500000 
188 1 0.850164 0.057294 0.500000 
189 1 0.870095 0.057522 0.500000 
190 1 0.890032 0.057734 0.500000 
191 1 0.909975 0.057934 0.500000 
192 1 0.929922 0.058120 0.500000 
193 1 0.949875 0.058294 0.500000 
194 1 0.969833 0.058458 0.500000 
195 1 0.989796 0.058613 0.500000 
196 1 0.020924 0.084144 0.500000 
197 1 0.040959 0.084763 0.500000 
198 1 0.060994 0.085390 0.500000 
199 1 0.081020 0.086042 0.500000 
200 1 0.101086 0.086714 0.500000 
201 1 0.121143 0.087379 0.500000 
202 1 0.141182 0.088051 0.500000 
203 1 0.161195 0.088791 0.500000 
204 1 0.191603 0.073035 0.500000 
205 1 0.181217 0.089533 0.500000 
206 1 0.211595 0.073710 0.500000 
207 1 0.201256 0.090221 0.500000 
208 1 0.221290 0.090897 0.500000 
209 1 0.231591 0.074383 0.500000 
210 1 0.241283 0.091624 0.500000 
211 1 0.251592 0.075091 0.500000 
212 1 0.261296 0.092330 0.500000 
213 1 0.271628 0.075801 0.500000 
214 1 0.291642 0.076537 0.500000 
215 1 0.311627 0.077265 0.500000 
216 1 0.331599 0.077996 0.500000 
217 1 0.351584 0.078699 0.500000 
218 1 0.371588 0.079404 0.500000 
219 1 0.391569 0.080120 0.500000 
220 1 0.411515 0.080875 0.500000 
221 1 0.431471 0.081647 0.500000 
222 1 0.451429 0.082369 0.500000 
223 1 0.471346 0.083059 0.500000 
224 1 0.491251 0.083717 0.500000 
225 1 0.511167 0.084346 0.500000 
226 1 0.531057 0.084950 0.500000 
227 1 0.550936 0.085515 0.500000 
228 1 0.570833 0.086072 0.500000 
229 1 0.590731 0.086611 0.500000 
230 1 0.610602 0.087126 0.500000 
231 1 0.630501 0.087578 0.500000 
232 1 0.650437 0.088079 0.500000 
233 1 0.670349 0.088514 0.500000 
234 1 0.690225 0.088915 0.500000 
235 1 0.710095 0.089303 0.500000 
236 1 0.730027 0.089693 0.500000 
237 1 0.740321 0.072799 0.500000 
238 1 0.749991 0.090011 0.500000 
239 1 0.760237 0.073140 0.500000 
240 1 0.769936 0.090373 0.500000 
241 1 0.780109 0.073437 0.500000 
242 1 0.789828 0.090620 0.500000 
243 1 0.800000 0.073698 0.500000 
244 1 0.809729 0.090852 0.500000 
245 1 0.819928 0.073928 0.500000 
246 1 0.829655 0.091064 0.500000 
247 1 0.839882 0.074165 0.500000 
248 1 0.849597 0.091268 0.500000 
249 1 0.859860 0.074384 0.500000 
250 1 0.869536 0.091521 0.500000 
251 1 0.879807 0.074647 0.500000 
252 1 0.889507 0.091786 0.500000 
253 1 0.899727 0.074847 0.500000 
254 1 0.909492 0.091929 0.500000 
255 1 0.919692 0.075009 0.500000 
256 1 0.929464 0.092091 0.500000 
257 1 0.939670 0.075209 0.500000 
258 1 0.949407 0.092323 0.500000 
259 1 0.959621 0.075390 0.500000 
260 1 0.979588 0.075542 0.500000 
261 1 0.999557 0.075685 0.500000 
262 1 0.010532 0.100598 0.500000 
263 1 0.030566 0.101214 0.500000 
264 1 0.050602 0.101839 0.500000 
265 1 0.070640 0.102476 0.500000 
266 1 0.090683 0.103131 0.500000 
267 1 0.110732 0.103840 0.500000 
268 1 0.130778 0.104523 0.500000 
269 1 0.150803 0.105242 0.500000 
270 1 0.170850 0.105988 0.500000 
271 1 0.190900 0.106699 0.500000 
272 1 0.210935 0.107364 0.500000 
273 1 0.230953 0.108110 0.500000 
274 1 0.250975 0.108844 0.500000 
275 1 0.270962 0.109599 0.500000 
276 1 0.281300 0.093074 0.500000 
277 1 0.290951 0.110330 0.500000 
278 1 0.301295 0.093799 0.500000 
279 1 0.310955 0.111073 0.500000 
280 1 0.321274 0.094542 0.500000 
281 1 0.330971 0.111800 0.500000 
282 1 0.341272 0.095254 0.500000 
283 1 0.361291 0.095954 0.500000 
284 1 0.381296 0.096692 0.500000 
285 1 0.401260 0.097461 0.500000 
286 1 0.421212 0.098242 0.500000 
287 1 0.441166 0.099001 0.500000 
288 1 0.461083 0.099744 0.500000 
289 1 0.481008 0.100434 0.500000 
290 1 0.500937 0.101081 0.500000 
291 1 0.520824 0.101714 0.500000 
292 1 0.540708 0.102289 0.500000 
293 1 0.560599 0.102864 0.500000 
294 1 0.580474 0.103415 0.500000 
295 1 0.600348 0.103952 0.500000 
296 1 0.620241 0.104434 0.500000 
297 1 0.640126 0.104884 0.500000 
298 1 0.660040 0.105341 0.500000 
299 1 0.679961 0.105804 0.500000 
300 1 0.699872 0.106222 0.500000 
301 1 0.719800 0.106556 0.500000 
302 1 0.739762 0.106887 0.500000 
303 1 0.759689 0.107217 0.500000 
304 1 0.779600 0.107545 0.500000 
305 1 0.799490 0.107793 0.500000 
306 1 0.819422 0.108004 0.500000 
307 1 0.839373 0.108213 0.500000 
308 1 0.859297 0.108434 0.500000 
309 1 0.879252 0.108674 0.500000 
310 1 0.899246 0.108881 0.500000 
311 1 0.919210 0.109036 0.500000 
312 1 0.939174 0.109214 0.500000 
313 1 0.969375 0.092475 0.500000 
314 1 0.959160 0.109410 0.500000 
315 1 0.989349 0.092617 0.500000 
316 1 0.979136 0.109550 0.500000 
317 1 0.999117 0.109681 0.500000 
318 1 0.020165 0.117663 0.500000 
319 1 0.040201 0.118287 0.500000 
320 1 0.060239 0.118920 0.500000 
321 1 0.080231 0.119543 0.500000 
322 1 0.100249 0.120249 0.500000 
323 1 0.120320 0.120965 0.500000 
324 1 0.140389 0.121687 0.500000 
325 1 0.160452 0.122396 0.500000 
326 1 0.180526 0.123131 0.500000 
327 1 0.200589 0.123840 0.500000 
328 1 0.220605 0.124565 0.500000 
329 1 0.240622 0.125320 0.500000 
330 1 0.260620 0.126100 0.500000 
331 1 0.280611 0.126861 0.500000 
332 1 0.300623 0.127586 0.500000 
333 1 0.320648 0.128317 0.500000 
334 1 0.340672 0.129036 0.500000 
335 1 0.350978 0.112495 0.500000 
336 1 0.360662 0.129764 0.500000 
337 1 0.370981 0.113234 0.500000 
338 1 0.380627 0.130551 0.500000 
339 1 0.390977 0.114021 0.500000 
340 1 0.400627 0.131346 0.500000 
341 1 0.410946 0.114796 0.500000 
342 1 0.420607 0.132131 0.500000 
343 1 0.430910 0.115562 0.500000 
344 1 0.450862 0.116376 0.500000 
345 1 0.470803 0.117118 0.500000 
346 1 0.490718 0.117815 0.500000 
347 1 0.510606 0.118484 0.500000 
348 1 0.530504 0.119066 0.500000 
349 1 0.550407 0.119639 0.500000 
350 1 0.570306 0.120241 0.500000 
351 1 0.590180 0.120782 0.500000 
352 1 0.610055 0.121293 0.500000 
353 1 0.629950 0.121767 0.500000 
354 1 0.649845 0.122188 0.500000 
355 1 0.669745 0.122640 0.500000 
356 1 0.689676 0.123127 0.500000 
357 1 0.709582 0.123493 0.500000 
358 1 0.729495 0.123783 0.500000 
359 1 0.749409 0.124095 0.500000 
360 1 0.769322 0.124404 0.500000 
361 1 0.789263 0.124717 0.500000 
362 1 0.809208 0.124963 0.500000 
363 1 0.829157 0.125184 0.500000 
364 1 0.849089 0.125415 0.500000 
365 1 0.869025 0.125589 0.500000 
366 1 0.889026 0.125787 0.500000 
367 1 0.909012 0.126001 0.500000 
368 1 0.928961 0.126173 0.500000 
369 1 0.948940 0.126349 0.500000 
370 1 0.968919 0.126487 0.500000 
371 1 0.988905 0.126616 0.500000 
372 1 0.009754 0.134110 0.500000 
373 1 0.029790 0.134729 0.500000 
374 1 0.019367 0.151171 0.500000 
375 1 0.049825 0.135360 0.500000 
376 1 0.039403 0.151799 0.500000 
377 1 0.069865 0.136003 0.500000 
378 1 0.089828 0.136659 0.500000 
379 1 0.109869 0.137350 0.500000 
380 1 0.129966 0.138090 0.500000 
381 1 0.150054 0.138819 0.500000 
382 1 0.170125 0.139531 0.500000 
383 1 0.190201 0.140271 0.500000 
384 1 0.210248 0.141037 0.500000 
385 1 0.230260 0.141803 0.500000 
386 1 0.250244 0.142579 0.500000 
387 1 0.270238 0.143349 0.500000 
388 1 0.290264 0.144091 0.500000 
389 1 0.310297 0.144830 0.500000 
390 1 0.330317 0.145544 0.500000 
391 1 0.350301 0.146286 0.500000 
392 1 0.370273 0.147095 0.500000 
393 1 0.390273 0.147887 0.500000 
394 1 0.410249 0.148729 0.500000 
395 1 0.440552 0.132962 0.500000 
396 1 0.430190 0.149568 0.500000 
397 1 0.460527 0.133778 0.500000 
398 1 0.450151 0.150376 0.500000 
399 1 0.480468 0.134533 0.500000 
400 1 0.470116 0.151190 0.500000 
401 1 0.500366 0.135232 0.500000 
402 1 0.490039 0.151955 0.500000 
403 1 0.520277 0.135859 0.500000 
404 1 0.540175 0.136447 0.500000 
405 1 0.560074 0.137015 0.500000 
406 1 0.579994 0.137592 0.500000 
407 1 0.599915 0.138159 0.500000 
408 1 0.619825 0.138669 0.500000 
409 1 0.639709 0.139120 0.500000 
410 1 0.659575 0.139555 0.500000 
411 1 0.679469 0.139969 0.500000 
412 1 0.699373 0.140429 0.500000 
413 1 0.719259 0.140737 0.500000 
414 1 0.739151 0.141028 0.500000 
415 1 0.759057 0.141308 0.500000 
416 1 0.778992 0.141591 0.500000 
417 1 0.798945 0.141896 0.500000 
418 1 0.818886 0.142127 0.500000 
419 1 0.838839 0.142365 0.500000 
420 1 0.858800 0.142579 0.500000 
421 1 0.878777 0.142690 0.500000 
422 1 0.898784 0.142887 0.500000 
423 1 0.918758 0.143114 0.500000 
424 1 0.938705 0.143301 0.500000 
425 1 0.958701 0.143428 0.500000 
426 1 0.978689 0.143555 0.500000 
427 1 0.998682 0.143674 0.500000 
428 1 0.008938 0.167610 0.500000 
429 1 0.028972 0.168234 0.500000 
430 1 0.049008 0.168868 0.500000 
431 1 0.059442 0.152437 0.500000 
432 1 0.069047 0.169517 0.500000 
433 1 0.079468 0.153109 0.500000 
434 1 0.089075 0.170205 0.500000 
435 1 0.099476 0.153761 0.500000 
436 1 0.109130 0.170853 0.500000 
437 1 0.119532 0.154450 0.500000 
438 1 0.139626 0.155207 0.500000 
439 1 0.129205 0.171578 0.500000 
440 1 0.159721 0.155940 0.500000 
441 1 0.179782 0.156682 0.500000 
442 1 0.199832 0.157467 0.500000 
443 1 0.219867 0.158278 0.500000 
444 1 0.239877 0.159070 0.500000 
445 1 0.259872 0.159824 0.500000 
446 1 0.279884 0.160569 0.500000 
447 1 0.299923 0.161324 0.500000 
448 1 0.319944 0.162076 0.500000 
449 1 0.339936 0.162821 0.500000 
450 1 0.359938 0.163608 0.500000 
451 1 0.379940 0.164442 0.500000 
452 1 0.399889 0.165301 0.500000 
453 1 0.419833 0.166125 0.500000 
454 1 0.439804 0.166938 0.500000 
455 1 0.459755 0.167782 0.500000 
456 1 0.479703 0.168604 0.500000 
457 1 0.499637 0.169351 0.500000 
458 1 0.509955 0.152618 0.500000 
459 1 0.519548 0.170036 0.500000 
460 1 0.529877 0.153267 0.500000 
461 1 0.539474 0.170664 0.500000 
462 1 0.549791 0.153853 0.500000 
463 1 0.559400 0.171288 0.500000 
464 1 0.569693 0.154421 0.500000 
465 1 0.579356 0.171853 0.500000 
466 1 0.589642 0.154983 0.500000 
467 1 0.609611 0.155531 0.500000 
468 1 0.629516 0.156048 0.500000 
469 1 0.649378 0.156525 0.500000 
470 1 0.669250 0.156909 0.500000 
471 1 0.689136 0.157294 0.500000 
472 1 0.709087 0.157674 0.500000 
473 1 0.728995 0.158000 0.500000 
474 1 0.748876 0.158286 0.500000 
475 1 0.768785 0.158544 0.500000 
476 1 0.788705 0.158809 0.500000 
477 1 0.808637 0.159073 0.500000 
478 1 0.828552 0.159277 0.500000 
479 1 0.848513 0.159504 0.500000 
480 1 0.868506 0.159676 0.500000 
481 1 0.888489 0.159804 0.500000 
482 1 0.908467 0.159990 0.500000 
483 1 0.928474 0.160211 0.500000 
484 1 0.948477 0.160370 0.500000 
485 1 0.968470 0.160496 0.500000 
486 1 0.988467 0.160611 0.500000 
487 1 0.018532 0.184668 0.500000 
488 1 0.038566 0.185299 0.500000 
489 1 0.058602 0.185942 0.500000 
490 1 0.078636 0.186606 0.500000 
491 1 0.098728 0.187302 0.500000 
492 1 0.118787 0.187991 0.500000 
493 1 0.138845 0.188727 0.500000 
494 1 0.149293 0.172333 0.500000 
495 1 0.158893 0.189516 0.500000 
496 1 0.169345 0.173097 0.500000 
497 1 0.178937 0.190286 0.500000 
498 1 0.189385 0.173871 0.500000 
499 1 0.198985 0.191078 0.500000 
500 1 0.209428 0.174695 0.500000 
501 1 0.219064 0.191904 0.500000 
502 1 0.229483 0.175512 0.500000 
503 1 0.249540 0.176296 0.500000 
504 1 0.269583 0.177059 0.500000 
505 1 0.289610 0.177828 0.500000 
506 1 0.309637 0.178602 0.500000 
507 1 0.329670 0.179353 0.500000 
508 1 0.349671 0.180129 0.500000 
509 1 0.369645 0.180957 0.500000 
510 1 0.389603 0.181827 0.500000 
511 1 0.409561 0.182667 0.500000 
512 1 0.429529 0.183499 0.500000 
513 1 0.449478 0.184387 0.500000 
514 1 0.469423 0.185228 0.500000 
515 1 0.489338 0.186052 0.500000 
516 1 0.509249 0.186788 0.500000 
517 1 0.529175 0.187444 0.500000 
518 1 0.549100 0.188085 0.500000 
519 1 0.569066 0.188677 0.500000 
520 1 0.589028 0.189241 0.500000 
521 1 0.599311 0.172374 0.500000 
522 1 0.608974 0.189750 0.500000 
523 1 0.619238 0.172898 0.500000 
524 1 0.628899 0.190258 0.500000 
525 1 0.639147 0.173394 0.500000 
526 1 0.648811 0.190727 0.500000 
527 1 0.659067 0.173873 0.500000 
528 1 0.668726 0.191224 0.500000 
529 1 0.678939 0.174273 0.500000 
530 1 0.688614 0.191582 0.500000 
531 1 0.698830 0.174581 0.500000 
532 1 0.718776 0.174956 0.500000 
533 1 0.738700 0.175277 0.500000 
534 1 0.758615 0.175533 0.500000 
535 1 0.778554 0.175792 0.500000 
536 1 0.798468 0.176014 0.500000 
537 1 0.818387 0.176243 0.500000 
538 1 0.838305 0.176403 0.500000 
539 1 0.858270 0.176596 0.500000 
540 1 0.878261 0.176765 0.500000 
541 1 0.898228 0.176938 0.500000 
542 1 0.918216 0.177087 0.500000 
543 1 0.938249 0.177284 0.500000 
544 1 0.958249 0.177440 0.500000 
545 1 0.978251 0.177553 0.500000 
546 1 0.998258 0.177659 0.500000 
547 1 0.008083 0.201103 0.500000 
548 1 0.028113 0.201727 0.500000 
549 1 0.048147 0.202367 0.500000 
550 1 0.068185 0.203017 0.500000 
551 1 0.088272 0.203707 0.500000 
552 1 0.108362 0.204443 0.500000 
553 1 0.128413 0.205161 0.500000 
554 1 0.148443 0.205931 0.500000 
555 1 0.168494 0.206724 0.500000 
556 1 0.188557 0.207495 0.500000 
557 1 0.208632 0.208279 0.500000 
558 1 0.239158 0.192715 0.500000 
559 1 0.228723 0.209096 0.500000 
560 1 0.259228 0.193523 0.500000 
561 1 0.248793 0.209935 0.500000 
562 1 0.279280 0.194332 0.500000 
563 1 0.268854 0.210765 0.500000 
564 1 0.299331 0.195112 0.500000 
565 1 0.288923 0.211583 0.500000 
566 1 0.319366 0.195853 0.500000 
567 1 0.339373 0.196628 0.500000 
568 1 0.359349 0.197465 0.500000 
569 1 0.379308 0.198335 0.500000 
570 1 0.399277 0.199218 0.500000 
571 1 0.419239 0.200093 0.500000 
572 1 0.439209 0.200986 0.500000 
573 1 0.459165 0.201874 0.500000 
574 1 0.479072 0.202754 0.500000 
575 1 0.498982 0.203528 0.500000 
576 1 0.518900 0.204214 0.500000 
577 1 0.538817 0.204892 0.500000 
578 1 0.558748 0.205468 0.500000 
579 1 0.578700 0.206049 0.500000 
580 1 0.598651 0.206590 0.500000 
581 1 0.618572 0.207132 0.500000 
582 1 0.638493 0.207634 0.500000 
583 1 0.658417 0.208075 0.500000 
584 1 0.678353 0.208528 0.500000 
585 1 0.708519 0.191898 0.500000 
586 1 0.698267 0.208872 0.500000 
587 1 0.728457 0.192240 0.500000 
588 1 0.718174 0.209191 0.500000 
589 1 0.748371 0.192527 0.500000 
590 1 0.738118 0.209515 0.500000 
591 1 0.768295 0.192755 0.500000 
592 1 0.758051 0.209750 0.500000 
593 1 0.788197 0.193007 0.500000 
594 1 0.777933 0.209988 0.500000 
595 1 0.808098 0.193192 0.500000 
596 1 0.797825 0.210173 0.500000 
597 1 0.828062 0.193372 0.500000 
598 1 0.817759 0.210325 0.500000 
599 1 0.848031 0.193509 0.500000 
600 1 0.837722 0.210467 0.500000 
601 1 0.867985 0.193711 0.500000 
602 1 0.857683 0.210657 0.500000 
603 1 0.887951 0.193918 0.500000 
604 1 0.877685 0.210846 0.500000 
605 1 0.907955 0.194049 0.500000 
606 1 0.897706 0.211010 0.500000 
607 1 0.927973 0.194204 0.500000 
608 1 0.917729 0.211164 0.500000 
609 1 0.948021 0.194385 0.500000 
610 1 0.937764 0.211303 0.500000 
611 1 0.957807 0.211443 0.500000 
612 1 0.968031 0.194496 0.500000 
613 1 0.977825 0.211543 0.500000 
614 1 0.988043 0.194599 0.500000 
615 1 0.997847 0.211634 0.500000 
616 1 0.017654 0.218157 0.500000 
617 1 0.037684 0.218790 0.500000 
618 1 0.057718 0.219436 0.500000 
619 1 0.077779 0.220121 0.500000 
620 1 0.097849 0.220837 0.500000 
621 1 0.117929 0.221582 0.500000 
622 1 0.137987 0.222349 0.500000 
623 1 0.158042 0.223140 0.500000 
624 1 0.178121 0.223932 0.500000 
625 1 0.198209 0.224691 0.500000 
626 1 0.218280 0.225484 0.500000 
627 1 0.238340 0.226315 0.500000 
628 1 0.258394 0.227169 0.500000 
629 1 0.278452 0.228001 0.500000 
630 1 0.298526 0.228815 0.500000 
631 1 0.308972 0.212346 0.500000 
632 1 0.318563 0.229630 0.500000 
633 1 0.328978 0.213116 0.500000 
634 1 0.338547 0.230500 0.500000 
635 1 0.348954 0.213975 0.500000 
636 1 0.358536 0.231383 0.500000 
637 1 0.368943 0.214859 0.500000 
638 1 0.388911 0.215746 0.500000 
639 1 0.408885 0.216654 0.500000 
640 1 0.428855 0.217568 0.500000 
641 1 0.448786 0.218483 0.500000 
642 1 0.468719 0.219403 0.500000 
643 1 0.488676 0.220245 0.500000 
644 1 0.508615 0.220987 0.500000 
645 1 0.528523 0.221673 0.500000 
646 1 0.548460 0.222313 0.500000 
647 1 0.568370 0.222869 0.500000 
648 1 0.588302 0.223426 0.500000 
649 1 0.608222 0.223982 0.500000 
650 1 0.628151 0.224508 0.500000 
651 1 0.648072 0.224995 0.500000 
652 1 0.667990 0.225426 0.500000 
653 1 0.687936 0.225806 0.500000 
654 1 0.707831 0.226161 0.500000 
655 1 0.727742 0.226441 0.500000 
656 1 0.747736 0.226735 0.500000 
657 1 0.767705 0.226973 0.500000 
658 1 0.787628 0.227160 0.500000 
659 1 0.807569 0.227331 0.500000 
660 1 0.827532 0.227460 0.500000 
661 1 0.847475 0.227615 0.500000 
662 1 0.867449 0.227772 0.500000 
663 1 0.887445 0.227929 0.500000 
664 1 0.907486 0.228089 0.500000 
665 1 0.927525 0.228260 0.500000 
666 1 0.947580 0.228392 0.500000 
667 1 0.967605 0.228489 0.500000 
668 1 0.987634 0.228577 0.500000 
669 1 0.007189 0.234587 0.500000 
670 1 0.027214 0.235215 0.500000 
671 1 0.047243 0.235854 0.500000 
672 1 0.067275 0.236508 0.500000 
673 1 0.087360 0.237232 0.500000 
674 1 0.107426 0.237967 0.500000 
675 1 0.127469 0.238735 0.500000 
676 1 0.147524 0.239528 0.500000 
677 1 0.167627 0.240317 0.500000 
678 1 0.187755 0.241093 0.500000 
679 1 0.207841 0.241894 0.500000 
680 1 0.227901 0.242705 0.500000 
681 1 0.247950 0.243563 0.500000 
682 1 0.268020 0.244419 0.500000 
683 1 0.288090 0.245272 0.500000 
684 1 0.308120 0.246114 0.500000 
685 1 0.328122 0.246993 0.500000 
686 1 0.348137 0.247891 0.500000 
687 1 0.378528 0.232286 0.500000 
688 1 0.368152 0.248791 0.500000 
689 1 0.398502 0.233189 0.500000 
690 1 0.388136 0.249741 0.500000 
691 1 0.418454 0.234131 0.500000 
692 1 0.408082 0.250722 0.500000 
693 1 0.438410 0.235090 0.500000 
694 1 0.428012 0.251686 0.500000 
695 1 0.458327 0.236023 0.500000 
696 1 0.478253 0.236911 0.500000 
697 1 0.498204 0.237748 0.500000 
698 1 0.518137 0.238482 0.500000 
699 1 0.538079 0.239114 0.500000 
700 1 0.558020 0.239742 0.500000 
701 1 0.577941 0.240268 0.500000 
702 1 0.597873 0.240837 0.500000 
703 1 0.617813 0.241361 0.500000 
704 1 0.637730 0.241880 0.500000 
705 1 0.657679 0.242332 0.500000 
706 1 0.677641 0.242719 0.500000 
707 1 0.697574 0.243105 0.500000 
708 1 0.717464 0.243412 0.500000 
709 1 0.737373 0.243657 0.500000 
710 1 0.757363 0.243938 0.500000 
711 1 0.777346 0.244159 0.500000 
712 1 0.797343 0.244334 0.500000 
713 1 0.817315 0.244497 0.500000 
714 1 0.837236 0.244625 0.500000 
715 1 0.857220 0.244733 0.500000 
716 1 0.877217 0.244860 0.500000 
717 1 0.897217 0.245010 0.500000 
718 1 0.917256 0.245197 0.500000 
719 1 0.937301 0.245336 0.500000 
720 1 0.957383 0.245436 0.500000 
721 1 0.977417 0.245522 0.500000 
722 1 0.997455 0.245600 0.500000 
723 1 0.016737 0.251640 0.500000 
724 1 0.006256 0.268068 0.500000 
725 1 0.036760 0.252274 0.500000 
726 1 0.026272 0.268696 0.500000 
727 1 0.056787 0.252921 0.500000 
728 1 0.046292 0.269335 0.500000 
729 1 0.076859 0.253624 0.500000 
730 1 0.066319 0.269991 0.500000 
731 1 0.096911 0.254351 0.500000 
732 1 0.086381 0.270746 0.500000 
733 1 0.116956 0.255116 0.500000 
734 1 0.137008 0.255912 0.500000 
735 1 0.157111 0.256680 0.500000 
736 1 0.177240 0.257446 0.500000 
737 1 0.197331 0.258266 0.500000 
738 1 0.217417 0.259102 0.500000 
739 1 0.237477 0.259950 0.500000 
740 1 0.257544 0.260819 0.500000 
741 1 0.277608 0.261703 0.500000 
742 1 0.297655 0.262575 0.500000 
743 1 0.317694 0.263441 0.500000 
744 1 0.337718 0.264344 0.500000 
745 1 0.357734 0.265292 0.500000 
746 1 0.377717 0.266255 0.500000 
747 1 0.397689 0.267254 0.500000 
748 1 0.417643 0.268274 0.500000 
749 1 0.437566 0.269259 0.500000 
750 1 0.447943 0.252660 0.500000 
751 1 0.457484 0.270271 0.500000 
752 1 0.467860 0.253597 0.500000 
753 1 0.477407 0.271207 0.500000 
754 1 0.487773 0.254458 0.500000 
755 1 0.507707 0.255286 0.500000 
756 1 0.527629 0.255975 0.500000 
757 1 0.547556 0.256582 0.500000 
758 1 0.567515 0.257130 0.500000 
759 1 0.587449 0.257670 0.500000 
760 1 0.607385 0.258192 0.500000 
761 1 0.627346 0.258710 0.500000 
762 1 0.647323 0.259196 0.500000 
763 1 0.667297 0.259633 0.500000 
764 1 0.687247 0.260001 0.500000 
765 1 0.707188 0.260369 0.500000 
766 1 0.727127 0.260658 0.500000 
767 1 0.747058 0.260873 0.500000 
768 1 0.767021 0.261154 0.500000 
769 1 0.787020 0.261342 0.500000 
770 1 0.807017 0.261516 0.500000 
771 1 0.826980 0.261653 0.500000 
772 1 0.846964 0.261744 0.500000 
773 1 0.867001 0.261844 0.500000 
774 1 0.887021 0.261963 0.500000 
775 1 0.907052 0.262123 0.500000 
776 1 0.927074 0.262283 0.500000 
777 1 0.947159 0.262387 0.500000 
778 1 0.967200 0.262468 0.500000 
779 1 0.987245 0.262544 0.500000 
780 1 0.015779 0.285121 0.500000 
781 1 0.035792 0.285753 0.500000 
782 1 0.055810 0.286400 0.500000 
783 1 0.075870 0.287115 0.500000 
784 1 0.095935 0.287886 0.500000 
785 1 0.106424 0.271494 0.500000 
786 1 0.115969 0.288663 0.500000 
787 1 0.126469 0.272280 0.500000 
788 1 0.135994 0.289427 0.500000 
789 1 0.146563 0.273065 0.500000 
790 1 0.156093 0.290184 0.500000 
791 1 0.166684 0.273808 0.500000 
792 1 0.176194 0.290975 0.500000 
793 1 0.186773 0.274615 0.500000 
794 1 0.206870 0.275456 0.500000 
795 1 0.226977 0.276326 0.500000 
796 1 0.247025 0.277202 0.500000 
797 1 0.267066 0.278086 0.500000 
798 1 0.287146 0.278976 0.500000 
799 1 0.307235 0.279851 0.500000 
800 1 0.327268 0.280809 0.500000 
801 1 0.347269 0.281771 0.500000 
802 1 0.367264 0.282750 0.500000 
803 1 0.387218 0.283763 0.500000 
804 1 0.407184 0.284772 0.500000 
805 1 0.427166 0.285843 0.500000 
806 1 0.447079 0.286910 0.500000 
807 1 0.466995 0.287900 0.500000 
808 1 0.497312 0.272019 0.500000 
809 1 0.486908 0.288771 0.500000 
810 1 0.506811 0.289591 0.500000 
811 1 0.517210 0.272782 0.500000 
812 1 0.526723 0.290270 0.500000 
813 1 0.537127 0.273434 0.500000 
814 1 0.546654 0.290869 0.500000 
815 1 0.557065 0.274009 0.500000 
816 1 0.577006 0.274541 0.500000 
817 1 0.596960 0.275039 0.500000 
818 1 0.616935 0.275504 0.500000 
819 1 0.636907 0.276025 0.500000 
820 1 0.656869 0.276499 0.500000 
821 1 0.676832 0.276919 0.500000 
822 1 0.696772 0.277285 0.500000 
823 1 0.716749 0.277625 0.500000 
824 1 0.736726 0.277882 0.500000 
825 1 0.756654 0.278096 0.500000 
826 1 0.776657 0.278336 0.500000 
827 1 0.796670 0.278521 0.500000 
828 1 0.816676 0.278658 0.500000 
829 1 0.836671 0.278771 0.500000 
830 1 0.856737 0.278847 0.500000 
831 1 0.876769 0.278970 0.500000 
832 1 0.896791 0.279098 0.500000 
833 1 0.916848 0.279214 0.500000 
834 1 0.936891 0.279307 0.500000 
835 1 0.956982 0.279417 0.500000 
836 1 0.977036 0.279488 0.500000 
837 1 0.997089 0.279555 0.500000 
838 1 0.005284 0.301547 0.500000 
839 1 0.025288 0.302175 0.500000 
840 1 0.045299 0.302815 0.500000 
841 1 0.065313 0.303468 0.500000 
842 1 0.085371 0.304247 0.500000 
843 1 0.105438 0.305029 0.500000 
844 1 0.125499 0.305802 0.500000 
845 1 0.145567 0.306542 0.500000 
846 1 0.165643 0.307329 0.500000 
847 1 0.196292 0.291812 0.500000 
848 1 0.185734 0.308154 0.500000 
849 1 0.216386 0.292659 0.500000 
850 1 0.205838 0.309022 0.500000 
851 1 0.236469 0.293554 0.500000 
852 1 0.225906 0.309884 0.500000 
853 1 0.256543 0.294440 0.500000 
854 1 0.245979 0.310771 0.500000 
855 1 0.276631 0.295337 0.500000 
856 1 0.266063 0.311684 0.500000 
857 1 0.296732 0.296242 0.500000 
858 1 0.316777 0.297232 0.500000 
859 1 0.336796 0.298232 0.500000 
860 1 0.356815 0.299235 0.500000 
861 1 0.376784 0.300266 0.500000 
862 1 0.396784 0.301307 0.500000 
863 1 0.416718 0.302393 0.500000 
864 1 0.436621 0.303508 0.500000 
865 1 0.456554 0.304535 0.500000 
866 1 0.476460 0.305477 0.500000 
867 1 0.496329 0.306334 0.500000 
868 1 0.516243 0.307075 0.500000 
869 1 0.536187 0.307690 0.500000 
870 1 0.566601 0.291415 0.500000 
871 1 0.556143 0.308272 0.500000 
872 1 0.586570 0.291946 0.500000 
873 1 0.576083 0.308797 0.500000 
874 1 0.606531 0.292365 0.500000 
875 1 0.596089 0.309301 0.500000 
876 1 0.626508 0.292822 0.500000 
877 1 0.616063 0.309722 0.500000 
878 1 0.646513 0.293349 0.500000 
879 1 0.636050 0.310170 0.500000 
880 1 0.666501 0.293814 0.500000 
881 1 0.686459 0.294246 0.500000 