ITEM: TIMESTEP
1500
ITEM: NUMBER OF ATOMS
2850
ITEM: BOX BOUNDS ss ss pp
-28.0536 28.3253 
-28.9988 28.9984 
-0.5 0.5 
ITEM: ATOMS id type xs ys zs
1 1 0.012661 0.000000 0.500000 
2 1 0.032688 0.000597 0.500000 
3 1 0.052715 0.001202 0.500000 
4 1 0.072742 0.001814 0.500000 
5 1 0.092767 0.002433 0.500000 
6 1 0.112794 0.003060 0.500000 
7 1 0.132817 0.003697 0.500000 
8 1 0.152841 0.004338 0.500000 
9 1 0.172861 0.004988 0.500000 
10 1 0.192879 0.005643 0.500000 
11 1 0.212895 0.006305 0.500000 
12 1 0.232906 0.006973 0.500000 
13 1 0.252912 0.007645 0.500000 
14 1 0.272914 0.008319 0.500000 
15 1 0.292911 0.008997 0.500000 
16 1 0.312901 0.009676 0.500000 
17 1 0.332885 0.010356 0.500000 
18 1 0.352861 0.011033 0.500000 
19 1 0.372830 0.011707 0.500000 
20 1 0.392791 0.012376 0.500000 
21 1 0.022340 0.017073 0.500000 
22 1 0.042369 0.017677 0.500000 
23 1 0.062397 0.018289 0.500000 
24 1 0.082426 0.018911 0.500000 
25 1 0.102455 0.019539 0.500000 
26 1 0.122484 0.020177 0.500000 
27 1 0.142511 0.020822 0.500000 
28 1 0.162536 0.021475 0.500000 
29 1 0.182559 0.022136 0.500000 
30 1 0.202579 0.022803 0.500000 
31 1 0.222596 0.023475 0.500000 
32 1 0.242610 0.024155 0.500000 
33 1 0.262618 0.024839 0.500000 
34 1 0.282622 0.025527 0.500000 
35 1 0.302619 0.026217 0.500000 
36 1 0.322610 0.026908 0.500000 
37 1 0.342593 0.027600 0.500000 
38 1 0.362570 0.028289 0.500000 
39 1 0.382537 0.028974 0.500000 
40 1 0.402497 0.029655 0.500000 
41 1 0.412744 0.013039 0.500000 
42 1 0.422448 0.030326 0.500000 
43 1 0.432688 0.013694 0.500000 
44 1 0.442390 0.030989 0.500000 
45 1 0.452624 0.014337 0.500000 
46 1 0.462324 0.031639 0.500000 
47 1 0.472553 0.014968 0.500000 
48 1 0.482250 0.032276 0.500000 
49 1 0.492474 0.015584 0.500000 
50 1 0.512388 0.016184 0.500000 
51 1 0.532295 0.016766 0.500000 
52 1 0.552198 0.017330 0.500000 
53 1 0.572095 0.017873 0.500000 
54 1 0.591989 0.018396 0.500000 
55 1 0.611880 0.018896 0.500000 
56 1 0.631769 0.019373 0.500000 
57 1 0.651657 0.019829 0.500000 
58 1 0.671546 0.020261 0.500000 
59 1 0.691436 0.020670 0.500000 
60 1 0.711328 0.021058 0.500000 
61 1 0.731222 0.021423 0.500000 
62 1 0.751120 0.021768 0.500000 
63 1 0.771021 0.022094 0.500000 
64 1 0.790927 0.022399 0.500000 
65 1 0.810837 0.022687 0.500000 
66 1 0.830751 0.022958 0.500000 
67 1 0.850671 0.023211 0.500000 
68 1 0.870595 0.023449 0.500000 
69 1 0.890525 0.023674 0.500000 
70 1 0.910459 0.023884 0.500000 
71 1 0.930398 0.024080 0.500000 
72 1 0.950341 0.024267 0.500000 
73 1 0.970290 0.024443 0.500000 
74 1 0.990243 0.024606 0.500000 
75 1 0.011983 0.033545 0.500000 
76 1 0.032014 0.034148 0.500000 
77 1 0.021650 0.050615 0.500000 
78 1 0.052044 0.034760 0.500000 
79 1 0.041680 0.051227 0.500000 
80 1 0.072075 0.035381 0.500000 
81 1 0.061715 0.051847 0.500000 
82 1 0.092107 0.036012 0.500000 
83 1 0.081765 0.052486 0.500000 
84 1 0.112138 0.036650 0.500000 
85 1 0.132168 0.037297 0.500000 
86 1 0.152197 0.037952 0.500000 
87 1 0.172226 0.038617 0.500000 
88 1 0.192251 0.039288 0.500000 
89 1 0.212274 0.039967 0.500000 
90 1 0.232293 0.040654 0.500000 
91 1 0.252309 0.041345 0.500000 
92 1 0.272318 0.042042 0.500000 
93 1 0.292324 0.042743 0.500000 
94 1 0.312323 0.043447 0.500000 
95 1 0.332314 0.044150 0.500000 
96 1 0.352297 0.044856 0.500000 
97 1 0.372273 0.045557 0.500000 
98 1 0.392240 0.046254 0.500000 
99 1 0.412198 0.046944 0.500000 
100 1 0.432147 0.047626 0.500000 
101 1 0.452087 0.048297 0.500000 
102 1 0.472018 0.048954 0.500000 
103 1 0.502167 0.032896 0.500000 
104 1 0.491940 0.049595 0.500000 
105 1 0.522078 0.033498 0.500000 
106 1 0.511855 0.050220 0.500000 
107 1 0.541983 0.034081 0.500000 
108 1 0.531762 0.050823 0.500000 
109 1 0.561882 0.034643 0.500000 
110 1 0.551663 0.051406 0.500000 
111 1 0.581777 0.035184 0.500000 
112 1 0.571560 0.051966 0.500000 
113 1 0.601668 0.035702 0.500000 
114 1 0.591452 0.052503 0.500000 
115 1 0.621558 0.036195 0.500000 
116 1 0.641446 0.036666 0.500000 
117 1 0.661334 0.037110 0.500000 
118 1 0.681223 0.037533 0.500000 
119 1 0.701115 0.037931 0.500000 
120 1 0.721007 0.038307 0.500000 
121 1 0.740905 0.038660 0.500000 
122 1 0.760806 0.038993 0.500000 
123 1 0.780711 0.039305 0.500000 
124 1 0.800620 0.039597 0.500000 
125 1 0.820536 0.039873 0.500000 
126 1 0.840456 0.040130 0.500000 
127 1 0.860382 0.040369 0.500000 
128 1 0.880312 0.040595 0.500000 
129 1 0.900248 0.040807 0.500000 
130 1 0.920188 0.041005 0.500000 
131 1 0.940134 0.041192 0.500000 
132 1 0.960084 0.041368 0.500000 
133 1 0.980040 0.041531 0.500000 
134 1 1.000000 0.041686 0.500000 
135 1 0.011275 0.067077 0.500000 
136 1 0.031308 0.067688 0.500000 
137 1 0.051342 0.068307 0.500000 
138 1 0.071376 0.068936 0.500000 
139 1 0.091417 0.069610 0.500000 
140 1 0.101789 0.053132 0.500000 
141 1 0.111464 0.070256 0.500000 
142 1 0.121821 0.053774 0.500000 
143 1 0.131494 0.070911 0.500000 
144 1 0.141845 0.054410 0.500000 
145 1 0.151494 0.071601 0.500000 
146 1 0.161829 0.055081 0.500000 
147 1 0.171492 0.072253 0.500000 
148 1 0.181851 0.055772 0.500000 
149 1 0.201886 0.056478 0.500000 
150 1 0.221907 0.057174 0.500000 
151 1 0.241915 0.057861 0.500000 
152 1 0.261927 0.058566 0.500000 
153 1 0.281947 0.059297 0.500000 
154 1 0.301970 0.060010 0.500000 
155 1 0.321986 0.060711 0.500000 
156 1 0.341991 0.061420 0.500000 
157 1 0.361950 0.062140 0.500000 
158 1 0.381921 0.062898 0.500000 
159 1 0.401901 0.063599 0.500000 
160 1 0.421849 0.064255 0.500000 
161 1 0.441805 0.064956 0.500000 
162 1 0.461737 0.065662 0.500000 
163 1 0.481642 0.066276 0.500000 
164 1 0.501571 0.066925 0.500000 
165 1 0.521508 0.067554 0.500000 
166 1 0.541438 0.068109 0.500000 
167 1 0.561343 0.068709 0.500000 
168 1 0.581226 0.069268 0.500000 
169 1 0.601105 0.069787 0.500000 
170 1 0.611341 0.053013 0.500000 
171 1 0.620997 0.070284 0.500000 
172 1 0.631230 0.053499 0.500000 
173 1 0.640894 0.070752 0.500000 
174 1 0.651117 0.053960 0.500000 
175 1 0.671006 0.054396 0.500000 
176 1 0.660789 0.071195 0.500000 
177 1 0.690897 0.054806 0.500000 
178 1 0.680665 0.071612 0.500000 
179 1 0.710789 0.055192 0.500000 
180 1 0.700573 0.072034 0.500000 
181 1 0.730685 0.055554 0.500000 
182 1 0.720484 0.072438 0.500000 
183 1 0.750586 0.055894 0.500000 
184 1 0.770490 0.056213 0.500000 
185 1 0.790400 0.056511 0.500000 
186 1 0.810316 0.056789 0.500000 
187 1 0.830238 0.057049 0.500000 
188 1 0.850164 0.057294 0.500000 
189 1 0.870095 0.057522 0.500000 
190 1 0.890032 0.057734 0.500000 
191 1 0.909975 0.057934 0.500000 
192 1 0.929922 0.058120 0.500000 
193 1 0.949875 0.058294 0.500000 
194 1 0.969833 0.058458 0.500000 
195 1 0.989796 0.058613 0.500000 
196 1 0.020924 0.084144 0.500000 
197 1 0.040959 0.084763 0.500000 
198 1 0.060994 0.085390 0.500000 
199 1 0.081021 0.086048 0.500000 
200 1 0.101074 0.086725 0.500000 
201 1 0.121096 0.087416 0.500000 
202 1 0.141107 0.088094 0.500000 
203 1 0.161153 0.088765 0.500000 
204 1 0.191503 0.072950 0.500000 
205 1 0.181163 0.089438 0.500000 
206 1 0.211539 0.073657 0.500000 
207 1 0.201170 0.090129 0.500000 
208 1 0.221194 0.090846 0.500000 
209 1 0.231566 0.074365 0.500000 
210 1 0.241237 0.091568 0.500000 
211 1 0.251569 0.075083 0.500000 
212 1 0.261262 0.092347 0.500000 
213 1 0.271555 0.075815 0.500000 
214 1 0.291589 0.076554 0.500000 
215 1 0.311638 0.077285 0.500000 
216 1 0.331653 0.077988 0.500000 
217 1 0.351648 0.078738 0.500000 
218 1 0.371648 0.079472 0.500000 
219 1 0.391656 0.080196 0.500000 
220 1 0.411616 0.080912 0.500000 
221 1 0.431519 0.081611 0.500000 
222 1 0.451438 0.082319 0.500000 
223 1 0.471385 0.082991 0.500000 
224 1 0.491308 0.083642 0.500000 
225 1 0.511248 0.084284 0.500000 
226 1 0.531199 0.084871 0.500000 
227 1 0.551099 0.085468 0.500000 
228 1 0.570994 0.086025 0.500000 
229 1 0.590886 0.086546 0.500000 
230 1 0.610768 0.087056 0.500000 
231 1 0.630631 0.087554 0.500000 
232 1 0.650498 0.088008 0.500000 
233 1 0.670391 0.088466 0.500000 
234 1 0.690298 0.088846 0.500000 
235 1 0.710211 0.089263 0.500000 
236 1 0.730126 0.089644 0.500000 
237 1 0.740383 0.072780 0.500000 
238 1 0.750070 0.089965 0.500000 
239 1 0.760289 0.073086 0.500000 
240 1 0.770027 0.090286 0.500000 
241 1 0.780187 0.073388 0.500000 
242 1 0.789948 0.090542 0.500000 
243 1 0.800112 0.073676 0.500000 
244 1 0.809864 0.090809 0.500000 
245 1 0.820041 0.073948 0.500000 
246 1 0.829775 0.091119 0.500000 
247 1 0.839941 0.074206 0.500000 
248 1 0.849715 0.091310 0.500000 
249 1 0.859862 0.074384 0.500000 
250 1 0.869653 0.091471 0.500000 
251 1 0.879809 0.074599 0.500000 
252 1 0.889593 0.091692 0.500000 
253 1 0.899770 0.074836 0.500000 
254 1 0.909546 0.091928 0.500000 
255 1 0.919720 0.075024 0.500000 
256 1 0.929490 0.092130 0.500000 
257 1 0.939666 0.075221 0.500000 
258 1 0.949407 0.092323 0.500000 
259 1 0.959621 0.075390 0.500000 
260 1 0.979588 0.075542 0.500000 
261 1 0.999557 0.075685 0.500000 
262 1 0.010532 0.100598 0.500000 
263 1 0.030566 0.101214 0.500000 
264 1 0.050602 0.101839 0.500000 
265 1 0.070640 0.102476 0.500000 
266 1 0.090673 0.103157 0.500000 
267 1 0.110706 0.103883 0.500000 
268 1 0.130724 0.104572 0.500000 
269 1 0.150761 0.105228 0.500000 
270 1 0.170800 0.105924 0.500000 
271 1 0.190810 0.106619 0.500000 
272 1 0.210823 0.107336 0.500000 
273 1 0.230879 0.108052 0.500000 
274 1 0.250930 0.108817 0.500000 
275 1 0.270966 0.109577 0.500000 
276 1 0.281284 0.093070 0.500000 
277 1 0.290971 0.110333 0.500000 
278 1 0.301302 0.093813 0.500000 
279 1 0.310977 0.111068 0.500000 
280 1 0.321318 0.094569 0.500000 
281 1 0.331001 0.111836 0.500000 
282 1 0.341322 0.095307 0.500000 
283 1 0.361349 0.096048 0.500000 
284 1 0.381368 0.096782 0.500000 
285 1 0.401325 0.097527 0.500000 
286 1 0.421262 0.098276 0.500000 
287 1 0.441189 0.098996 0.500000 
288 1 0.461099 0.099674 0.500000 
289 1 0.481018 0.100368 0.500000 
290 1 0.500948 0.101009 0.500000 
291 1 0.520888 0.101609 0.500000 
292 1 0.540806 0.102219 0.500000 
293 1 0.560724 0.102786 0.500000 
294 1 0.580615 0.103336 0.500000 
295 1 0.600494 0.103850 0.500000 
296 1 0.620388 0.104356 0.500000 
297 1 0.640274 0.104846 0.500000 
298 1 0.660142 0.105297 0.500000 
299 1 0.680039 0.105710 0.500000 
300 1 0.699944 0.106098 0.500000 
301 1 0.719863 0.106474 0.500000 
302 1 0.739784 0.106825 0.500000 
303 1 0.759725 0.107133 0.500000 
304 1 0.779680 0.107434 0.500000 
305 1 0.799619 0.107691 0.500000 
306 1 0.819530 0.107983 0.500000 
307 1 0.839477 0.108225 0.500000 
308 1 0.859416 0.108393 0.500000 
309 1 0.879345 0.108580 0.500000 
310 1 0.899283 0.108805 0.500000 
311 1 0.919252 0.109016 0.500000 
312 1 0.939219 0.109241 0.500000 
313 1 0.969375 0.092475 0.500000 
314 1 0.959160 0.109410 0.500000 
315 1 0.989349 0.092617 0.500000 
316 1 0.979136 0.109550 0.500000 
317 1 0.999117 0.109681 0.500000 
318 1 0.020165 0.117663 0.500000 
319 1 0.040201 0.118287 0.500000 
320 1 0.060239 0.118920 0.500000 
321 1 0.080269 0.119578 0.500000 
322 1 0.100310 0.120286 0.500000 
323 1 0.120359 0.121025 0.500000 
324 1 0.140376 0.121686 0.500000 
325 1 0.160390 0.122372 0.500000 
326 1 0.180415 0.123090 0.500000 
327 1 0.200449 0.123810 0.500000 
328 1 0.220503 0.124535 0.500000 
329 1 0.240553 0.125278 0.500000 
330 1 0.260594 0.126057 0.500000 
331 1 0.280610 0.126826 0.500000 
332 1 0.300638 0.127573 0.500000 
333 1 0.320672 0.128316 0.500000 
334 1 0.340690 0.129108 0.500000 
335 1 0.351016 0.112602 0.500000 
336 1 0.360660 0.129909 0.500000 
337 1 0.371014 0.113358 0.500000 
338 1 0.380622 0.130706 0.500000 
339 1 0.390978 0.114153 0.500000 
340 1 0.400616 0.131531 0.500000 
341 1 0.410925 0.114900 0.500000 
342 1 0.420572 0.132299 0.500000 
343 1 0.430875 0.115654 0.500000 
344 1 0.450782 0.116383 0.500000 
345 1 0.470680 0.117052 0.500000 
346 1 0.490625 0.117716 0.500000 
347 1 0.510556 0.118335 0.500000 
348 1 0.530478 0.118944 0.500000 
349 1 0.550411 0.119530 0.500000 
350 1 0.570310 0.120112 0.500000 
351 1 0.590224 0.120672 0.500000 
352 1 0.610130 0.121165 0.500000 
353 1 0.630025 0.121658 0.500000 
354 1 0.649923 0.122139 0.500000 
355 1 0.669815 0.122559 0.500000 
356 1 0.689700 0.122966 0.500000 
357 1 0.709598 0.123342 0.500000 
358 1 0.729525 0.123678 0.500000 
359 1 0.749476 0.123999 0.500000 
360 1 0.769402 0.124302 0.500000 
361 1 0.789332 0.124582 0.500000 
362 1 0.809262 0.124872 0.500000 
363 1 0.829209 0.125104 0.500000 
364 1 0.849173 0.125312 0.500000 
365 1 0.869110 0.125495 0.500000 
366 1 0.889043 0.125699 0.500000 
367 1 0.909004 0.125898 0.500000 
368 1 0.928970 0.126116 0.500000 
369 1 0.948940 0.126349 0.500000 
370 1 0.968919 0.126487 0.500000 
371 1 0.988905 0.126616 0.500000 
372 1 0.009754 0.134110 0.500000 
373 1 0.029790 0.134729 0.500000 
374 1 0.019367 0.151171 0.500000 
375 1 0.049825 0.135360 0.500000 
376 1 0.039403 0.151799 0.500000 
377 1 0.069865 0.136003 0.500000 
378 1 0.089877 0.136690 0.500000 
379 1 0.109921 0.137417 0.500000 
380 1 0.129988 0.138149 0.500000 
381 1 0.150000 0.138834 0.500000 
382 1 0.170007 0.139548 0.500000 
383 1 0.190045 0.140258 0.500000 
384 1 0.210088 0.140992 0.500000 
385 1 0.230136 0.141742 0.500000 
386 1 0.250180 0.142501 0.500000 
387 1 0.270238 0.143290 0.500000 
388 1 0.290297 0.144067 0.500000 
389 1 0.310326 0.144827 0.500000 
390 1 0.330337 0.145617 0.500000 
391 1 0.350339 0.146442 0.500000 
392 1 0.370318 0.147261 0.500000 
393 1 0.390267 0.148066 0.500000 
394 1 0.410246 0.148904 0.500000 
395 1 0.440472 0.133057 0.500000 
396 1 0.430180 0.149716 0.500000 
397 1 0.460385 0.133748 0.500000 
398 1 0.450102 0.150419 0.500000 
399 1 0.480325 0.134403 0.500000 
400 1 0.470053 0.151105 0.500000 
401 1 0.500262 0.135053 0.500000 
402 1 0.490001 0.151794 0.500000 
403 1 0.520191 0.135678 0.500000 
404 1 0.540117 0.136273 0.500000 
405 1 0.560010 0.136882 0.500000 
406 1 0.579915 0.137431 0.500000 
407 1 0.599826 0.137985 0.500000 
408 1 0.619700 0.138496 0.500000 
409 1 0.639594 0.138976 0.500000 
410 1 0.659521 0.139406 0.500000 
411 1 0.679431 0.139820 0.500000 
412 1 0.699339 0.140212 0.500000 
413 1 0.719240 0.140545 0.500000 
414 1 0.739173 0.140865 0.500000 
415 1 0.759128 0.141173 0.500000 
416 1 0.779059 0.141470 0.500000 
417 1 0.798970 0.141764 0.500000 
418 1 0.818921 0.142003 0.500000 
419 1 0.838900 0.142188 0.500000 
420 1 0.858882 0.142413 0.500000 
421 1 0.878840 0.142609 0.500000 
422 1 0.898810 0.142781 0.500000 
423 1 0.918775 0.142998 0.500000 
424 1 0.938739 0.143238 0.500000 
425 1 0.958701 0.143428 0.500000 
426 1 0.978689 0.143555 0.500000 
427 1 0.998682 0.143674 0.500000 
428 1 0.008938 0.167610 0.500000 
429 1 0.028972 0.168234 0.500000 
430 1 0.049008 0.168868 0.500000 
431 1 0.059442 0.152437 0.500000 
432 1 0.069047 0.169517 0.500000 
433 1 0.079458 0.153118 0.500000 
434 1 0.089093 0.170253 0.500000 
435 1 0.099482 0.153828 0.500000 
436 1 0.109142 0.170966 0.500000 
437 1 0.119538 0.154551 0.500000 
438 1 0.139604 0.155290 0.500000 
439 1 0.129177 0.171704 0.500000 
440 1 0.159631 0.156026 0.500000 
441 1 0.179637 0.156730 0.500000 
442 1 0.199650 0.157442 0.500000 
443 1 0.219700 0.158171 0.500000 
444 1 0.239775 0.158941 0.500000 
445 1 0.259839 0.159743 0.500000 
446 1 0.279893 0.160524 0.500000 
447 1 0.299929 0.161342 0.500000 
448 1 0.319953 0.162147 0.500000 
449 1 0.339963 0.162976 0.500000 
450 1 0.359954 0.163802 0.500000 
451 1 0.379926 0.164636 0.500000 
452 1 0.399873 0.165469 0.500000 
453 1 0.419797 0.166312 0.500000 
454 1 0.439751 0.167085 0.500000 
455 1 0.459707 0.167795 0.500000 
456 1 0.479654 0.168503 0.500000 
457 1 0.499602 0.169160 0.500000 
458 1 0.509928 0.152419 0.500000 
459 1 0.519509 0.169812 0.500000 
460 1 0.529855 0.153051 0.500000 
461 1 0.539401 0.170475 0.500000 
462 1 0.549742 0.153680 0.500000 
463 1 0.559299 0.171061 0.500000 
464 1 0.569627 0.154231 0.500000 
465 1 0.579191 0.171626 0.500000 
466 1 0.589506 0.154795 0.500000 
467 1 0.609384 0.155331 0.500000 
468 1 0.629271 0.155825 0.500000 
469 1 0.649178 0.156261 0.500000 
470 1 0.669089 0.156670 0.500000 
471 1 0.689022 0.157057 0.500000 
472 1 0.708949 0.157436 0.500000 
473 1 0.728865 0.157742 0.500000 
474 1 0.748804 0.158056 0.500000 
475 1 0.768735 0.158355 0.500000 
476 1 0.788682 0.158634 0.500000 
477 1 0.808633 0.158883 0.500000 
478 1 0.828592 0.159108 0.500000 
479 1 0.848567 0.159292 0.500000 
480 1 0.868574 0.159500 0.500000 
481 1 0.888567 0.159690 0.500000 
482 1 0.908543 0.159893 0.500000 
483 1 0.928510 0.160118 0.500000 
484 1 0.948477 0.160370 0.500000 
485 1 0.968470 0.160496 0.500000 
486 1 0.988467 0.160611 0.500000 
487 1 0.018532 0.184668 0.500000 
488 1 0.038566 0.185299 0.500000 
489 1 0.058602 0.185942 0.500000 
490 1 0.078680 0.186647 0.500000 
491 1 0.098745 0.187378 0.500000 
492 1 0.118776 0.188120 0.500000 
493 1 0.138789 0.188880 0.500000 
494 1 0.149208 0.172459 0.500000 
495 1 0.158820 0.189632 0.500000 
496 1 0.169242 0.173212 0.500000 
497 1 0.178869 0.190376 0.500000 
498 1 0.189257 0.173921 0.500000 
499 1 0.198915 0.191088 0.500000 
500 1 0.209291 0.174617 0.500000 
501 1 0.218949 0.191809 0.500000 
502 1 0.229333 0.175350 0.500000 
503 1 0.249394 0.176172 0.500000 
504 1 0.269471 0.176999 0.500000 
505 1 0.289489 0.177817 0.500000 
506 1 0.309512 0.178632 0.500000 
507 1 0.329540 0.179477 0.500000 
508 1 0.349556 0.180320 0.500000 
509 1 0.369533 0.181187 0.500000 
510 1 0.389485 0.182046 0.500000 
511 1 0.409451 0.182930 0.500000 
512 1 0.429399 0.183731 0.500000 
513 1 0.449350 0.184477 0.500000 
514 1 0.469288 0.185207 0.500000 
515 1 0.489224 0.185867 0.500000 
516 1 0.509137 0.186542 0.500000 
517 1 0.529022 0.187205 0.500000 
518 1 0.548905 0.187832 0.500000 
519 1 0.568798 0.188431 0.500000 
520 1 0.588719 0.188984 0.500000 
521 1 0.599081 0.172160 0.500000 
522 1 0.608614 0.189498 0.500000 
523 1 0.618958 0.172654 0.500000 
524 1 0.628521 0.189952 0.500000 
525 1 0.638863 0.173112 0.500000 
526 1 0.648426 0.190390 0.500000 
527 1 0.658765 0.173539 0.500000 
528 1 0.668348 0.190810 0.500000 
529 1 0.678669 0.173935 0.500000 
530 1 0.688287 0.191192 0.500000 
531 1 0.698598 0.174298 0.500000 
532 1 0.718564 0.174631 0.500000 
533 1 0.738523 0.174916 0.500000 
534 1 0.758503 0.175231 0.500000 
535 1 0.778477 0.175511 0.500000 
536 1 0.798426 0.175774 0.500000 
537 1 0.818374 0.175999 0.500000 
538 1 0.838336 0.176208 0.500000 
539 1 0.858309 0.176383 0.500000 
540 1 0.878311 0.176592 0.500000 
541 1 0.898297 0.176795 0.500000 
542 1 0.918276 0.177025 0.500000 
543 1 0.938257 0.177259 0.500000 
544 1 0.958249 0.177440 0.500000 
545 1 0.978251 0.177553 0.500000 
546 1 0.998258 0.177659 0.500000 
547 1 0.008083 0.201103 0.500000 
548 1 0.028113 0.201727 0.500000 
549 1 0.048147 0.202367 0.500000 
550 1 0.068185 0.203017 0.500000 
551 1 0.088272 0.203759 0.500000 
552 1 0.108340 0.204515 0.500000 
553 1 0.128373 0.205295 0.500000 
554 1 0.148403 0.206054 0.500000 
555 1 0.168449 0.206807 0.500000 
556 1 0.188497 0.207546 0.500000 
557 1 0.208541 0.208285 0.500000 
558 1 0.238975 0.192595 0.500000 
559 1 0.228577 0.209052 0.500000 
560 1 0.259020 0.193421 0.500000 
561 1 0.248615 0.209852 0.500000 
562 1 0.279051 0.194290 0.500000 
563 1 0.268648 0.210708 0.500000 
564 1 0.299054 0.195096 0.500000 
565 1 0.288666 0.211576 0.500000 
566 1 0.319088 0.195925 0.500000 
567 1 0.339125 0.196808 0.500000 
568 1 0.359131 0.197700 0.500000 
569 1 0.379128 0.198617 0.500000 
570 1 0.399088 0.199500 0.500000 
571 1 0.419038 0.200363 0.500000 
572 1 0.438991 0.201139 0.500000 
573 1 0.458942 0.201885 0.500000 
574 1 0.478887 0.202576 0.500000 
575 1 0.498819 0.203238 0.500000 
576 1 0.518741 0.203936 0.500000 
577 1 0.538624 0.204599 0.500000 
578 1 0.558505 0.205221 0.500000 
579 1 0.578417 0.205773 0.500000 
580 1 0.598337 0.206332 0.500000 
581 1 0.618240 0.206797 0.500000 
582 1 0.638155 0.207252 0.500000 
583 1 0.658065 0.207658 0.500000 
584 1 0.677997 0.208053 0.500000 
585 1 0.708237 0.191491 0.500000 
586 1 0.697966 0.208386 0.500000 
587 1 0.728234 0.191800 0.500000 
588 1 0.717941 0.208665 0.500000 
589 1 0.748222 0.192075 0.500000 
590 1 0.737948 0.208964 0.500000 
591 1 0.768214 0.192382 0.500000 
592 1 0.757941 0.209229 0.500000 
593 1 0.788202 0.192672 0.500000 
594 1 0.777940 0.209511 0.500000 
595 1 0.808154 0.192897 0.500000 
596 1 0.797917 0.209812 0.500000 
597 1 0.828122 0.193107 0.500000 
598 1 0.817881 0.210012 0.500000 
599 1 0.848117 0.193291 0.500000 
600 1 0.837881 0.210197 0.500000 
601 1 0.868107 0.193486 0.500000 
602 1 0.857882 0.210389 0.500000 
603 1 0.888091 0.193729 0.500000 
604 1 0.877883 0.210616 0.500000 
605 1 0.908054 0.193917 0.500000 
606 1 0.897872 0.210840 0.500000 
607 1 0.928026 0.194144 0.500000 
608 1 0.917824 0.211045 0.500000 
609 1 0.948021 0.194385 0.500000 
610 1 0.937808 0.211254 0.500000 
611 1 0.957807 0.211443 0.500000 
612 1 0.968031 0.194496 0.500000 
613 1 0.977825 0.211543 0.500000 
614 1 0.988043 0.194599 0.500000 
615 1 0.997847 0.211634 0.500000 
616 1 0.017654 0.218157 0.500000 
617 1 0.037684 0.218790 0.500000 
618 1 0.057718 0.219436 0.500000 
619 1 0.077788 0.220131 0.500000 
620 1 0.097866 0.220887 0.500000 
621 1 0.117915 0.221678 0.500000 
622 1 0.137957 0.222479 0.500000 
623 1 0.157983 0.223247 0.500000 
624 1 0.178042 0.223994 0.500000 
625 1 0.198090 0.224733 0.500000 
626 1 0.218142 0.225497 0.500000 
627 1 0.238175 0.226311 0.500000 
628 1 0.258212 0.227129 0.500000 
629 1 0.278272 0.228016 0.500000 
630 1 0.298331 0.228879 0.500000 
631 1 0.308688 0.212385 0.500000 
632 1 0.318341 0.229793 0.500000 
633 1 0.328706 0.213292 0.500000 
634 1 0.338325 0.230710 0.500000 
635 1 0.348725 0.214211 0.500000 
636 1 0.358297 0.231641 0.500000 
637 1 0.368712 0.215146 0.500000 
638 1 0.388685 0.216056 0.500000 
639 1 0.408657 0.216934 0.500000 
640 1 0.428608 0.217758 0.500000 
641 1 0.448564 0.218514 0.500000 
642 1 0.468516 0.219251 0.500000 
643 1 0.488457 0.219953 0.500000 
644 1 0.508375 0.220663 0.500000 
645 1 0.528281 0.221363 0.500000 
646 1 0.548196 0.221999 0.500000 
647 1 0.568128 0.222581 0.500000 
648 1 0.588048 0.223114 0.500000 
649 1 0.607970 0.223649 0.500000 
650 1 0.627887 0.224091 0.500000 
651 1 0.647800 0.224520 0.500000 
652 1 0.667724 0.224917 0.500000 
653 1 0.687704 0.225252 0.500000 
654 1 0.707677 0.225549 0.500000 
655 1 0.727660 0.225835 0.500000 
656 1 0.747656 0.226111 0.500000 
657 1 0.767647 0.226372 0.500000 
658 1 0.787648 0.226658 0.500000 
659 1 0.807659 0.226924 0.500000 
660 1 0.827648 0.227113 0.500000 
661 1 0.847632 0.227308 0.500000 
662 1 0.867611 0.227508 0.500000 
663 1 0.887608 0.227728 0.500000 
664 1 0.907616 0.227950 0.500000 
665 1 0.927600 0.228160 0.500000 
666 1 0.947580 0.228392 0.500000 
667 1 0.967605 0.228489 0.500000 
668 1 0.987634 0.228577 0.500000 
669 1 0.007189 0.234587 0.500000 
670 1 0.027214 0.235215 0.500000 
671 1 0.047243 0.235854 0.500000 
672 1 0.067275 0.236508 0.500000 
673 1 0.087370 0.237274 0.500000 
674 1 0.107403 0.238054 0.500000 
675 1 0.127446 0.238864 0.500000 
676 1 0.147486 0.239685 0.500000 
677 1 0.167558 0.240407 0.500000 
678 1 0.187639 0.241154 0.500000 
679 1 0.207685 0.241898 0.500000 
680 1 0.227711 0.242740 0.500000 
681 1 0.247761 0.243577 0.500000 
682 1 0.267820 0.244444 0.500000 
683 1 0.287872 0.245344 0.500000 
684 1 0.307892 0.246266 0.500000 
685 1 0.327905 0.247193 0.500000 
686 1 0.347903 0.248102 0.500000 
687 1 0.378290 0.232580 0.500000 
688 1 0.367879 0.249072 0.500000 
689 1 0.398264 0.233482 0.500000 
690 1 0.387856 0.250021 0.500000 
691 1 0.418214 0.234365 0.500000 
692 1 0.407825 0.250940 0.500000 
693 1 0.438192 0.235145 0.500000 
694 1 0.427805 0.251760 0.500000 
695 1 0.458162 0.235921 0.500000 
696 1 0.478087 0.236690 0.500000 
697 1 0.497994 0.237427 0.500000 
698 1 0.517900 0.238109 0.500000 
699 1 0.537809 0.238734 0.500000 
700 1 0.557739 0.239366 0.500000 
701 1 0.577682 0.239919 0.500000 
702 1 0.597616 0.240439 0.500000 
703 1 0.617573 0.240939 0.500000 
704 1 0.637514 0.241376 0.500000 
705 1 0.657445 0.241776 0.500000 
706 1 0.677412 0.242116 0.500000 
707 1 0.697383 0.242452 0.500000 
708 1 0.717351 0.242715 0.500000 
709 1 0.737340 0.242985 0.500000 
710 1 0.757332 0.243264 0.500000 
711 1 0.777338 0.243536 0.500000 
712 1 0.797373 0.243774 0.500000 
713 1 0.817419 0.244004 0.500000 
714 1 0.837418 0.244214 0.500000 
715 1 0.857404 0.244430 0.500000 
716 1 0.877400 0.244622 0.500000 
717 1 0.897410 0.244840 0.500000 
718 1 0.917418 0.245066 0.500000 
719 1 0.937402 0.245269 0.500000 
720 1 0.957383 0.245436 0.500000 
721 1 0.977417 0.245522 0.500000 
722 1 0.997455 0.245600 0.500000 
723 1 0.016737 0.251640 0.500000 
724 1 0.006256 0.268068 0.500000 
725 1 0.036760 0.252274 0.500000 
726 1 0.026272 0.268696 0.500000 
727 1 0.056787 0.252921 0.500000 
728 1 0.046292 0.269335 0.500000 
729 1 0.076852 0.253645 0.500000 
730 1 0.066319 0.269991 0.500000 
731 1 0.096902 0.254452 0.500000 
732 1 0.086389 0.270820 0.500000 
733 1 0.116943 0.255248 0.500000 
734 1 0.136987 0.256076 0.500000 
735 1 0.157049 0.256801 0.500000 
736 1 0.177126 0.257527 0.500000 
737 1 0.197196 0.258293 0.500000 
738 1 0.217233 0.259113 0.500000 
739 1 0.237281 0.259983 0.500000 
740 1 0.257337 0.260854 0.500000 
741 1 0.277375 0.261762 0.500000 
742 1 0.297400 0.262695 0.500000 
743 1 0.317437 0.263626 0.500000 
744 1 0.337458 0.264569 0.500000 
745 1 0.357424 0.265558 0.500000 
746 1 0.377418 0.266533 0.500000 
747 1 0.397400 0.267494 0.500000 
748 1 0.417389 0.268358 0.500000 
749 1 0.437345 0.269206 0.500000 
750 1 0.447772 0.252570 0.500000 
751 1 0.457261 0.270045 0.500000 
752 1 0.467700 0.253401 0.500000 
753 1 0.477212 0.270793 0.500000 
754 1 0.487631 0.254130 0.500000 
755 1 0.507568 0.254809 0.500000 
756 1 0.527496 0.255469 0.500000 
757 1 0.547414 0.256083 0.500000 
758 1 0.567371 0.256690 0.500000 
759 1 0.587294 0.257234 0.500000 
760 1 0.607230 0.257753 0.500000 
761 1 0.627200 0.258235 0.500000 
762 1 0.647164 0.258651 0.500000 
763 1 0.667136 0.259000 0.500000 
764 1 0.687110 0.259314 0.500000 
765 1 0.707103 0.259617 0.500000 
766 1 0.727090 0.259892 0.500000 
767 1 0.747094 0.260148 0.500000 
768 1 0.767113 0.260431 0.500000 
769 1 0.787121 0.260672 0.500000 
770 1 0.807135 0.260871 0.500000 
771 1 0.827172 0.261096 0.500000 
772 1 0.847208 0.261314 0.500000 
773 1 0.867245 0.261522 0.500000 
774 1 0.887255 0.261719 0.500000 
775 1 0.907264 0.261962 0.500000 
776 1 0.927242 0.262168 0.500000 
777 1 0.947159 0.262387 0.500000 
778 1 0.967200 0.262468 0.500000 
779 1 0.987245 0.262544 0.500000 
780 1 0.015779 0.285121 0.500000 
781 1 0.035792 0.285753 0.500000 
782 1 0.055810 0.286400 0.500000 
783 1 0.075861 0.287159 0.500000 
784 1 0.095917 0.288004 0.500000 
785 1 0.106441 0.271639 0.500000 
786 1 0.115979 0.288791 0.500000 
787 1 0.126494 0.272441 0.500000 
788 1 0.136053 0.289554 0.500000 
789 1 0.146550 0.273189 0.500000 
790 1 0.156126 0.290291 0.500000 
791 1 0.166613 0.273901 0.500000 
792 1 0.176177 0.291069 0.500000 
793 1 0.186683 0.274679 0.500000 
794 1 0.206737 0.275489 0.500000 
795 1 0.226781 0.276349 0.500000 
796 1 0.246810 0.277220 0.500000 
797 1 0.266842 0.278113 0.500000 
798 1 0.286895 0.279042 0.500000 
799 1 0.306958 0.280008 0.500000 
800 1 0.326982 0.280988 0.500000 
801 1 0.346974 0.282026 0.500000 
802 1 0.366988 0.283035 0.500000 
803 1 0.387016 0.284034 0.500000 
804 1 0.407001 0.284949 0.500000 
805 1 0.426934 0.285843 0.500000 
806 1 0.446867 0.286727 0.500000 
807 1 0.466855 0.287478 0.500000 
808 1 0.497147 0.271500 0.500000 
809 1 0.486805 0.288270 0.500000 
810 1 0.506720 0.288986 0.500000 
811 1 0.517071 0.272190 0.500000 
812 1 0.526660 0.289614 0.500000 
813 1 0.537024 0.272821 0.500000 
814 1 0.546583 0.290237 0.500000 
815 1 0.556996 0.273430 0.500000 
816 1 0.576958 0.274043 0.500000 
817 1 0.596888 0.274576 0.500000 
818 1 0.616822 0.275063 0.500000 
819 1 0.636806 0.275493 0.500000 
820 1 0.656802 0.275879 0.500000 
821 1 0.676822 0.276193 0.500000 
822 1 0.696850 0.276485 0.500000 
823 1 0.716878 0.276793 0.500000 
824 1 0.736884 0.277064 0.500000 
825 1 0.756889 0.277317 0.500000 
826 1 0.776923 0.277588 0.500000 
827 1 0.796922 0.277791 0.500000 
828 1 0.816909 0.277995 0.500000 
829 1 0.836950 0.278193 0.500000 
830 1 0.856990 0.278402 0.500000 
831 1 0.877036 0.278606 0.500000 
832 1 0.897023 0.278834 0.500000 
833 1 0.917034 0.279059 0.500000 
834 1 0.936996 0.279292 0.500000 
835 1 0.956982 0.279417 0.500000 
836 1 0.977036 0.279488 0.500000 
837 1 0.997089 0.279555 0.500000 
838 1 0.005284 0.301547 0.500000 
839 1 0.025288 0.302175 0.500000 
840 1 0.045299 0.302815 0.500000 
841 1 0.065313 0.303468 0.500000 
842 1 0.085395 0.304332 0.500000 
843 1 0.105460 0.305137 0.500000 
844 1 0.125521 0.305896 0.500000 
845 1 0.145587 0.306655 0.500000 
846 1 0.165633 0.307441 0.500000 
847 1 0.196218 0.291884 0.500000 
848 1 0.185680 0.308254 0.500000 
849 1 0.216253 0.292707 0.500000 
850 1 0.205738 0.309073 0.500000 
851 1 0.236304 0.293571 0.500000 
852 1 0.225790 0.309889 0.500000 
853 1 0.256349 0.294450 0.500000 
854 1 0.245843 0.310794 0.500000 
855 1 0.276389 0.295362 0.500000 
856 1 0.265881 0.311707 0.500000 
857 1 0.296459 0.296325 0.500000 
858 1 0.316505 0.297353 0.500000 
859 1 0.336506 0.298430 0.500000 
860 1 0.356534 0.299482 0.500000 
861 1 0.376564 0.300495 0.500000 
862 1 0.396561 0.301505 0.500000 
863 1 0.416524 0.302458 0.500000 
864 1 0.436496 0.303384 0.500000 
865 1 0.456488 0.304198 0.500000 
866 1 0.476400 0.305035 0.500000 
867 1 0.496347 0.305798 0.500000 
868 1 0.516324 0.306427 0.500000 
869 1 0.536237 0.307081 0.500000 
870 1 0.566556 0.290864 0.500000 
871 1 0.556173 0.307661 0.500000 
872 1 0.586536 0.291422 0.500000 
873 1 0.576178 0.308257 0.500000 
874 1 0.606531 0.291902 0.500000 
875 1 0.596203 0.308762 0.500000 
876 1 0.626513 0.292317 0.500000 
877 1 0.616223 0.309188 0.500000 
878 1 0.646508 0.292723 0.500000 
879 1 0.636241 0.309569 0.500000 
880 1 0.666546 0.293069 0.500000 
881 1 0.686571 0.293372 0.500000 