ITEM: TIMESTEP
5000
ITEM: NUMBER OF ATOMS
2850
ITEM: BOX BOUNDS ss ss pp
-28.0536 28.3253 
-28.9988 28.9984 
-0.5 0.5 
ITEM: ATOMS id type xs ys zs
1 1 0.012661 0.000000 0.500000 
2 1 0.032688 0.000597 0.500000 
3 1 0.052715 0.001202 0.500000 
4 1 0.072742 0.001814 0.500000 
5 1 0.092767 0.002433 0.500000 
6 1 0.112794 0.003060 0.500000 
7 1 0.132817 0.003697 0.500000 
8 1 0.152841 0.004338 0.500000 
9 1 0.172861 0.004988 0.500000 
10 1 0.192879 0.005643 0.500000 
11 1 0.212895 0.006305 0.500000 
12 1 0.232906 0.006973 0.500000 
13 1 0.252912 0.007645 0.500000 
14 1 0.272914 0.008319 0.500000 
15 1 0.292911 0.008997 0.500000 
16 1 0.312901 0.009676 0.500000 
17 1 0.332885 0.010356 0.500000 
18 1 0.352861 0.011033 0.500000 
19 1 0.372830 0.011707 0.500000 
20 1 0.392791 0.012376 0.500000 
21 1 0.022340 0.017073 0.500000 
22 1 0.042369 0.017677 0.500000 
23 1 0.062397 0.018289 0.500000 
24 1 0.082426 0.018911 0.500000 
25 1 0.102455 0.019539 0.500000 
26 1 0.122484 0.020177 0.500000 
27 1 0.142511 0.020822 0.500000 
28 1 0.162536 0.021475 0.500000 
29 1 0.182559 0.022136 0.500000 
30 1 0.202579 0.022803 0.500000 
31 1 0.222596 0.023475 0.500000 
32 1 0.242610 0.024155 0.500000 
33 1 0.262618 0.024839 0.500000 
34 1 0.282622 0.025527 0.500000 
35 1 0.302619 0.026217 0.500000 
36 1 0.322610 0.026908 0.500000 
37 1 0.342593 0.027600 0.500000 
38 1 0.362570 0.028289 0.500000 
39 1 0.382537 0.028974 0.500000 
40 1 0.402497 0.029655 0.500000 
41 1 0.412744 0.013039 0.500000 
42 1 0.422448 0.030326 0.500000 
43 1 0.432688 0.013694 0.500000 
44 1 0.442390 0.030989 0.500000 
45 1 0.452624 0.014337 0.500000 
46 1 0.462324 0.031639 0.500000 
47 1 0.472553 0.014968 0.500000 
48 1 0.482250 0.032276 0.500000 
49 1 0.492474 0.015584 0.500000 
50 1 0.512388 0.016184 0.500000 
51 1 0.532295 0.016766 0.500000 
52 1 0.552198 0.017330 0.500000 
53 1 0.572095 0.017873 0.500000 
54 1 0.591989 0.018396 0.500000 
55 1 0.611880 0.018896 0.500000 
56 1 0.631769 0.019373 0.500000 
57 1 0.651657 0.019829 0.500000 
58 1 0.671546 0.020261 0.500000 
59 1 0.691436 0.020670 0.500000 
60 1 0.711328 0.021058 0.500000 
61 1 0.731222 0.021423 0.500000 
62 1 0.751120 0.021768 0.500000 
63 1 0.771021 0.022094 0.500000 
64 1 0.790927 0.022399 0.500000 
65 1 0.810837 0.022687 0.500000 
66 1 0.830751 0.022958 0.500000 
67 1 0.850671 0.023211 0.500000 
68 1 0.870595 0.023449 0.500000 
69 1 0.890525 0.023674 0.500000 
70 1 0.910459 0.023884 0.500000 
71 1 0.930398 0.024080 0.500000 
72 1 0.950341 0.024267 0.500000 
73 1 0.970290 0.024443 0.500000 
74 1 0.990243 0.024606 0.500000 
75 1 0.011983 0.033545 0.500000 
76 1 0.032014 0.034148 0.500000 
77 1 0.021650 0.050615 0.500000 
78 1 0.052044 0.034760 0.500000 
79 1 0.041680 0.051227 0.500000 
80 1 0.072075 0.035381 0.500000 
81 1 0.061715 0.051847 0.500000 
82 1 0.092107 0.036012 0.500000 
83 1 0.081755 0.052483 0.500000 
84 1 0.112138 0.036650 0.500000 
85 1 0.132168 0.037297 0.500000 
86 1 0.152197 0.037952 0.500000 
87 1 0.172226 0.038617 0.500000 
88 1 0.192251 0.039288 0.500000 
89 1 0.212274 0.039967 0.500000 
90 1 0.232293 0.040654 0.500000 
91 1 0.252309 0.041345 0.500000 
92 1 0.272318 0.042042 0.500000 
93 1 0.292324 0.042743 0.500000 
94 1 0.312323 0.043447 0.500000 
95 1 0.332314 0.044150 0.500000 
96 1 0.352297 0.044856 0.500000 
97 1 0.372273 0.045557 0.500000 
98 1 0.392240 0.046254 0.500000 
99 1 0.412198 0.046944 0.500000 
100 1 0.432147 0.047626 0.500000 
101 1 0.452087 0.048297 0.500000 
102 1 0.472018 0.048954 0.500000 
103 1 0.502167 0.032896 0.500000 
104 1 0.491940 0.049595 0.500000 
105 1 0.522078 0.033498 0.500000 
106 1 0.511855 0.050220 0.500000 
107 1 0.541983 0.034081 0.500000 
108 1 0.531762 0.050823 0.500000 
109 1 0.561882 0.034643 0.500000 
110 1 0.551663 0.051406 0.500000 
111 1 0.581777 0.035184 0.500000 
112 1 0.571560 0.051966 0.500000 
113 1 0.601668 0.035702 0.500000 
114 1 0.591452 0.052503 0.500000 
115 1 0.621558 0.036195 0.500000 
116 1 0.641446 0.036666 0.500000 
117 1 0.661334 0.037110 0.500000 
118 1 0.681223 0.037533 0.500000 
119 1 0.701115 0.037931 0.500000 
120 1 0.721007 0.038307 0.500000 
121 1 0.740905 0.038660 0.500000 
122 1 0.760806 0.038993 0.500000 
123 1 0.780711 0.039305 0.500000 
124 1 0.800620 0.039597 0.500000 
125 1 0.820536 0.039873 0.500000 
126 1 0.840456 0.040130 0.500000 
127 1 0.860382 0.040369 0.500000 
128 1 0.880312 0.040595 0.500000 
129 1 0.900248 0.040807 0.500000 
130 1 0.920188 0.041005 0.500000 
131 1 0.940134 0.041192 0.500000 
132 1 0.960084 0.041368 0.500000 
133 1 0.980040 0.041531 0.500000 
134 1 1.000000 0.041686 0.500000 
135 1 0.011275 0.067077 0.500000 
136 1 0.031308 0.067688 0.500000 
137 1 0.051342 0.068307 0.500000 
138 1 0.071376 0.068936 0.500000 
139 1 0.091425 0.069591 0.500000 
140 1 0.101792 0.053128 0.500000 
141 1 0.111469 0.070251 0.500000 
142 1 0.121827 0.053780 0.500000 
143 1 0.131508 0.070918 0.500000 
144 1 0.141860 0.054441 0.500000 
145 1 0.151543 0.071594 0.500000 
146 1 0.161891 0.055111 0.500000 
147 1 0.171575 0.072279 0.500000 
148 1 0.181919 0.055790 0.500000 
149 1 0.201944 0.056474 0.500000 
150 1 0.221966 0.057166 0.500000 
151 1 0.241983 0.057867 0.500000 
152 1 0.261995 0.058573 0.500000 
153 1 0.282001 0.059284 0.500000 
154 1 0.302001 0.059998 0.500000 
155 1 0.321994 0.060714 0.500000 
156 1 0.341979 0.061431 0.500000 
157 1 0.361956 0.062147 0.500000 
158 1 0.381924 0.062859 0.500000 
159 1 0.401883 0.063565 0.500000 
160 1 0.421833 0.064264 0.500000 
161 1 0.441775 0.064952 0.500000 
162 1 0.461709 0.065627 0.500000 
163 1 0.481632 0.066286 0.500000 
164 1 0.501550 0.066927 0.500000 
165 1 0.521463 0.067549 0.500000 
166 1 0.541370 0.068150 0.500000 
167 1 0.561272 0.068726 0.500000 
168 1 0.581170 0.069279 0.500000 
169 1 0.601066 0.069805 0.500000 
170 1 0.611341 0.053013 0.500000 
171 1 0.620962 0.070303 0.500000 
172 1 0.631230 0.053499 0.500000 
173 1 0.640857 0.070778 0.500000 
174 1 0.651117 0.053960 0.500000 
175 1 0.671006 0.054396 0.500000 
176 1 0.660752 0.071226 0.500000 
177 1 0.690897 0.054806 0.500000 
178 1 0.680649 0.071648 0.500000 
179 1 0.710789 0.055192 0.500000 
180 1 0.700548 0.072045 0.500000 
181 1 0.730685 0.055554 0.500000 
182 1 0.720450 0.072418 0.500000 
183 1 0.750586 0.055894 0.500000 
184 1 0.770490 0.056213 0.500000 
185 1 0.790400 0.056511 0.500000 
186 1 0.810316 0.056789 0.500000 
187 1 0.830238 0.057049 0.500000 
188 1 0.850164 0.057294 0.500000 
189 1 0.870095 0.057522 0.500000 
190 1 0.890032 0.057734 0.500000 
191 1 0.909975 0.057934 0.500000 
192 1 0.929922 0.058120 0.500000 
193 1 0.949875 0.058294 0.500000 
194 1 0.969833 0.058458 0.500000 
195 1 0.989796 0.058613 0.500000 
196 1 0.020924 0.084144 0.500000 
197 1 0.040959 0.084763 0.500000 
198 1 0.060994 0.085390 0.500000 
199 1 0.081043 0.086039 0.500000 
200 1 0.101091 0.086707 0.500000 
201 1 0.121136 0.087382 0.500000 
202 1 0.141177 0.088065 0.500000 
203 1 0.161214 0.088755 0.500000 
204 1 0.191604 0.072970 0.500000 
205 1 0.181249 0.089454 0.500000 
206 1 0.211629 0.073670 0.500000 
207 1 0.201278 0.090160 0.500000 
208 1 0.221303 0.090877 0.500000 
209 1 0.231648 0.074378 0.500000 
210 1 0.241322 0.091600 0.500000 
211 1 0.251664 0.075092 0.500000 
212 1 0.261335 0.092329 0.500000 
213 1 0.271673 0.075813 0.500000 
214 1 0.291677 0.076538 0.500000 
215 1 0.311673 0.077267 0.500000 
216 1 0.331660 0.077996 0.500000 
217 1 0.351640 0.078726 0.500000 
218 1 0.371610 0.079454 0.500000 
219 1 0.391571 0.080177 0.500000 
220 1 0.411523 0.080892 0.500000 
221 1 0.431466 0.081597 0.500000 
222 1 0.451402 0.082290 0.500000 
223 1 0.471331 0.082969 0.500000 
224 1 0.491251 0.083629 0.500000 
225 1 0.511165 0.084268 0.500000 
226 1 0.531075 0.084886 0.500000 
227 1 0.550982 0.085480 0.500000 
228 1 0.570885 0.086049 0.500000 
229 1 0.590787 0.086592 0.500000 
230 1 0.610687 0.087105 0.500000 
231 1 0.630587 0.087592 0.500000 
232 1 0.650488 0.088053 0.500000 
233 1 0.670392 0.088487 0.500000 
234 1 0.690298 0.088896 0.500000 
235 1 0.710206 0.089278 0.500000 
236 1 0.730116 0.089638 0.500000 
237 1 0.740355 0.072766 0.500000 
238 1 0.750032 0.089972 0.500000 
239 1 0.760266 0.073093 0.500000 
240 1 0.769952 0.090284 0.500000 
241 1 0.780180 0.073398 0.500000 
242 1 0.789876 0.090575 0.500000 
243 1 0.800100 0.073682 0.500000 
244 1 0.809804 0.090845 0.500000 
245 1 0.820026 0.073947 0.500000 
246 1 0.829736 0.091100 0.500000 
247 1 0.839955 0.074197 0.500000 
248 1 0.849673 0.091337 0.500000 
249 1 0.859889 0.074429 0.500000 
250 1 0.869615 0.091557 0.500000 
251 1 0.879828 0.074646 0.500000 
252 1 0.889560 0.091767 0.500000 
253 1 0.899771 0.074850 0.500000 
254 1 0.909508 0.091962 0.500000 
255 1 0.919718 0.075041 0.500000 
256 1 0.929457 0.092147 0.500000 
257 1 0.939669 0.075221 0.500000 
258 1 0.949407 0.092323 0.500000 
259 1 0.959621 0.075390 0.500000 
260 1 0.979588 0.075542 0.500000 
261 1 0.999557 0.075685 0.500000 
262 1 0.010532 0.100598 0.500000 
263 1 0.030566 0.101214 0.500000 
264 1 0.050602 0.101839 0.500000 
265 1 0.070640 0.102476 0.500000 
266 1 0.090696 0.103150 0.500000 
267 1 0.110747 0.103832 0.500000 
268 1 0.130795 0.104521 0.500000 
269 1 0.150840 0.105219 0.500000 
270 1 0.170879 0.105923 0.500000 
271 1 0.190914 0.106638 0.500000 
272 1 0.210945 0.107361 0.500000 
273 1 0.230968 0.108094 0.500000 
274 1 0.250987 0.108833 0.500000 
275 1 0.270999 0.109580 0.500000 
276 1 0.281341 0.093066 0.500000 
277 1 0.291002 0.110332 0.500000 
278 1 0.301341 0.093806 0.500000 
279 1 0.310998 0.111088 0.500000 
280 1 0.321334 0.094550 0.500000 
281 1 0.330987 0.111848 0.500000 
282 1 0.341317 0.095293 0.500000 
283 1 0.361291 0.096037 0.500000 
284 1 0.381256 0.096776 0.500000 
285 1 0.401211 0.097510 0.500000 
286 1 0.421158 0.098234 0.500000 
287 1 0.441096 0.098944 0.500000 
288 1 0.461027 0.099641 0.500000 
289 1 0.480951 0.100323 0.500000 
290 1 0.500869 0.100982 0.500000 
291 1 0.520780 0.101618 0.500000 
292 1 0.540689 0.102230 0.500000 
293 1 0.560596 0.102815 0.500000 
294 1 0.580501 0.103374 0.500000 
295 1 0.600406 0.103903 0.500000 
296 1 0.620310 0.104404 0.500000 
297 1 0.640217 0.104877 0.500000 
298 1 0.660126 0.105323 0.500000 
299 1 0.680038 0.105743 0.500000 
300 1 0.699951 0.106137 0.500000 
301 1 0.719867 0.106507 0.500000 
302 1 0.739788 0.106850 0.500000 
303 1 0.759713 0.107169 0.500000 
304 1 0.779641 0.107468 0.500000 
305 1 0.799573 0.107744 0.500000 
306 1 0.819509 0.108003 0.500000 
307 1 0.839450 0.108245 0.500000 
308 1 0.859394 0.108471 0.500000 
309 1 0.879341 0.108683 0.500000 
310 1 0.899292 0.108882 0.500000 
311 1 0.919244 0.109070 0.500000 
312 1 0.939199 0.109251 0.500000 
313 1 0.969375 0.092475 0.500000 
314 1 0.959160 0.109410 0.500000 
315 1 0.989349 0.092617 0.500000 
316 1 0.979136 0.109550 0.500000 
317 1 0.999117 0.109681 0.500000 
318 1 0.020165 0.117663 0.500000 
319 1 0.040201 0.118287 0.500000 
320 1 0.060239 0.118920 0.500000 
321 1 0.080292 0.119582 0.500000 
322 1 0.100345 0.120269 0.500000 
323 1 0.120398 0.120964 0.500000 
324 1 0.140448 0.121668 0.500000 
325 1 0.160494 0.122381 0.500000 
326 1 0.180534 0.123101 0.500000 
327 1 0.200571 0.123832 0.500000 
328 1 0.220601 0.124574 0.500000 
329 1 0.240625 0.125321 0.500000 
330 1 0.260642 0.126079 0.500000 
331 1 0.280654 0.126844 0.500000 
332 1 0.300656 0.127612 0.500000 
333 1 0.320650 0.128385 0.500000 
334 1 0.340636 0.129159 0.500000 
335 1 0.350967 0.112604 0.500000 
336 1 0.360611 0.129932 0.500000 
337 1 0.370938 0.113362 0.500000 
338 1 0.380576 0.130703 0.500000 
339 1 0.390898 0.114113 0.500000 
340 1 0.400531 0.131467 0.500000 
341 1 0.410848 0.114857 0.500000 
342 1 0.420478 0.132221 0.500000 
343 1 0.430789 0.115589 0.500000 
344 1 0.450723 0.116306 0.500000 
345 1 0.470648 0.117006 0.500000 
346 1 0.490568 0.117687 0.500000 
347 1 0.510483 0.118343 0.500000 
348 1 0.530394 0.118973 0.500000 
349 1 0.550304 0.119577 0.500000 
350 1 0.570212 0.120151 0.500000 
351 1 0.590121 0.120698 0.500000 
352 1 0.610030 0.121212 0.500000 
353 1 0.629941 0.121699 0.500000 
354 1 0.649854 0.122158 0.500000 
355 1 0.669769 0.122589 0.500000 
356 1 0.689687 0.122994 0.500000 
357 1 0.709608 0.123373 0.500000 
358 1 0.729534 0.123727 0.500000 
359 1 0.749463 0.124055 0.500000 
360 1 0.769396 0.124360 0.500000 
361 1 0.789333 0.124643 0.500000 
362 1 0.809272 0.124908 0.500000 
363 1 0.829216 0.125155 0.500000 
364 1 0.849163 0.125385 0.500000 
365 1 0.869114 0.125600 0.500000 
366 1 0.889068 0.125802 0.500000 
367 1 0.909024 0.125994 0.500000 
368 1 0.928981 0.126175 0.500000 
369 1 0.948940 0.126349 0.500000 
370 1 0.968919 0.126487 0.500000 
371 1 0.988905 0.126616 0.500000 
372 1 0.009754 0.134110 0.500000 
373 1 0.029790 0.134729 0.500000 
374 1 0.019367 0.151171 0.500000 
375 1 0.049825 0.135360 0.500000 
376 1 0.039403 0.151799 0.500000 
377 1 0.069865 0.136003 0.500000 
378 1 0.089927 0.136695 0.500000 
379 1 0.109984 0.137395 0.500000 
380 1 0.130039 0.138104 0.500000 
381 1 0.150092 0.138824 0.500000 
382 1 0.170138 0.139551 0.500000 
383 1 0.190181 0.140288 0.500000 
384 1 0.210218 0.141039 0.500000 
385 1 0.230249 0.141797 0.500000 
386 1 0.250273 0.142562 0.500000 
387 1 0.270291 0.143338 0.500000 
388 1 0.290302 0.144120 0.500000 
389 1 0.310303 0.144907 0.500000 
390 1 0.330295 0.145697 0.500000 
391 1 0.350277 0.146488 0.500000 
392 1 0.370249 0.147277 0.500000 
393 1 0.390209 0.148062 0.500000 
394 1 0.410160 0.148837 0.500000 
395 1 0.440416 0.132960 0.500000 
396 1 0.430102 0.149600 0.500000 
397 1 0.460345 0.133681 0.500000 
398 1 0.450035 0.150345 0.500000 
399 1 0.480266 0.134383 0.500000 
400 1 0.469960 0.151070 0.500000 
401 1 0.500184 0.135060 0.500000 
402 1 0.489880 0.151770 0.500000 
403 1 0.520098 0.135711 0.500000 
404 1 0.540009 0.136333 0.500000 
405 1 0.559920 0.136925 0.500000 
406 1 0.579831 0.137488 0.500000 
407 1 0.599743 0.138020 0.500000 
408 1 0.619656 0.138519 0.500000 
409 1 0.639572 0.138992 0.500000 
410 1 0.659493 0.139434 0.500000 
411 1 0.679415 0.139850 0.500000 
412 1 0.699341 0.140239 0.500000 
413 1 0.719271 0.140602 0.500000 
414 1 0.739205 0.140939 0.500000 
415 1 0.759143 0.141252 0.500000 
416 1 0.779084 0.141542 0.500000 
417 1 0.799028 0.141813 0.500000 
418 1 0.818975 0.142064 0.500000 
419 1 0.838927 0.142299 0.500000 
420 1 0.858881 0.142518 0.500000 
421 1 0.878839 0.142723 0.500000 
422 1 0.898800 0.142917 0.500000 
423 1 0.918763 0.143102 0.500000 
424 1 0.938729 0.143276 0.500000 
425 1 0.958701 0.143428 0.500000 
426 1 0.978689 0.143555 0.500000 
427 1 0.998682 0.143674 0.500000 
428 1 0.008938 0.167610 0.500000 
429 1 0.028972 0.168234 0.500000 
430 1 0.049008 0.168868 0.500000 
431 1 0.059442 0.152437 0.500000 
432 1 0.069047 0.169517 0.500000 
433 1 0.079497 0.153111 0.500000 
434 1 0.089111 0.170225 0.500000 
435 1 0.099556 0.153815 0.500000 
436 1 0.109175 0.170941 0.500000 
437 1 0.119615 0.154528 0.500000 
438 1 0.139671 0.155252 0.500000 
439 1 0.129236 0.171668 0.500000 
440 1 0.159725 0.155988 0.500000 
441 1 0.179774 0.156731 0.500000 
442 1 0.199817 0.157486 0.500000 
443 1 0.219857 0.158254 0.500000 
444 1 0.239890 0.159029 0.500000 
445 1 0.259915 0.159815 0.500000 
446 1 0.279932 0.160610 0.500000 
447 1 0.299942 0.161411 0.500000 
448 1 0.319942 0.162218 0.500000 
449 1 0.339932 0.163027 0.500000 
450 1 0.359911 0.163835 0.500000 
451 1 0.379879 0.164640 0.500000 
452 1 0.399836 0.165439 0.500000 
453 1 0.419781 0.166226 0.500000 
454 1 0.439719 0.166996 0.500000 
455 1 0.459649 0.167746 0.500000 
456 1 0.479573 0.168470 0.500000 
457 1 0.499492 0.169166 0.500000 
458 1 0.509797 0.152442 0.500000 
459 1 0.519407 0.169831 0.500000 
460 1 0.529711 0.153085 0.500000 
461 1 0.539322 0.170464 0.500000 
462 1 0.549624 0.153696 0.500000 
463 1 0.559236 0.171062 0.500000 
464 1 0.569536 0.154276 0.500000 
465 1 0.579153 0.171626 0.500000 
466 1 0.589451 0.154824 0.500000 
467 1 0.609369 0.155339 0.500000 
468 1 0.629287 0.155824 0.500000 
469 1 0.649210 0.156280 0.500000 
470 1 0.669137 0.156706 0.500000 
471 1 0.689067 0.157105 0.500000 
472 1 0.709000 0.157477 0.500000 
473 1 0.728938 0.157823 0.500000 
474 1 0.748880 0.158145 0.500000 
475 1 0.768825 0.158442 0.500000 
476 1 0.788775 0.158718 0.500000 
477 1 0.808729 0.158975 0.500000 
478 1 0.828685 0.159213 0.500000 
479 1 0.848644 0.159436 0.500000 
480 1 0.868606 0.159644 0.500000 
481 1 0.888571 0.159840 0.500000 
482 1 0.908540 0.160025 0.500000 
483 1 0.928509 0.160202 0.500000 
484 1 0.948477 0.160370 0.500000 
485 1 0.968470 0.160496 0.500000 
486 1 0.988467 0.160611 0.500000 
487 1 0.018532 0.184668 0.500000 
488 1 0.038566 0.185299 0.500000 
489 1 0.058602 0.185942 0.500000 
490 1 0.078659 0.186626 0.500000 
491 1 0.098723 0.187344 0.500000 
492 1 0.118787 0.188074 0.500000 
493 1 0.138849 0.188817 0.500000 
494 1 0.149294 0.172408 0.500000 
495 1 0.158910 0.189570 0.500000 
496 1 0.169351 0.173159 0.500000 
497 1 0.178968 0.190339 0.500000 
498 1 0.189401 0.173920 0.500000 
499 1 0.199022 0.191118 0.500000 
500 1 0.209446 0.174693 0.500000 
501 1 0.219070 0.191910 0.500000 
502 1 0.229487 0.175478 0.500000 
503 1 0.249521 0.176275 0.500000 
504 1 0.269549 0.177082 0.500000 
505 1 0.289567 0.177897 0.500000 
506 1 0.309575 0.178719 0.500000 
507 1 0.329573 0.179546 0.500000 
508 1 0.349561 0.180374 0.500000 
509 1 0.369537 0.181200 0.500000 
510 1 0.389501 0.182022 0.500000 
511 1 0.409454 0.182836 0.500000 
512 1 0.429396 0.183632 0.500000 
513 1 0.449329 0.184407 0.500000 
514 1 0.469256 0.185158 0.500000 
515 1 0.489179 0.185880 0.500000 
516 1 0.509097 0.186571 0.500000 
517 1 0.529013 0.187226 0.500000 
518 1 0.548931 0.187846 0.500000 
519 1 0.568849 0.188427 0.500000 
520 1 0.588770 0.188974 0.500000 
521 1 0.599073 0.172157 0.500000 
522 1 0.608694 0.189488 0.500000 
523 1 0.618995 0.172657 0.500000 
524 1 0.628623 0.189969 0.500000 
525 1 0.638921 0.173125 0.500000 
526 1 0.648557 0.190419 0.500000 
527 1 0.658852 0.173562 0.500000 
528 1 0.668494 0.190838 0.500000 
529 1 0.678785 0.173971 0.500000 
530 1 0.688436 0.191230 0.500000 
531 1 0.698722 0.174353 0.500000 
532 1 0.718664 0.174709 0.500000 
533 1 0.738610 0.175038 0.500000 
534 1 0.758560 0.175343 0.500000 
535 1 0.778515 0.175624 0.500000 
536 1 0.798474 0.175884 0.500000 
537 1 0.818435 0.176129 0.500000 
538 1 0.838398 0.176355 0.500000 
539 1 0.858366 0.176565 0.500000 
540 1 0.878336 0.176765 0.500000 
541 1 0.898309 0.176949 0.500000 
542 1 0.918286 0.177126 0.500000 
543 1 0.938264 0.177297 0.500000 
544 1 0.958249 0.177440 0.500000 
545 1 0.978251 0.177553 0.500000 
546 1 0.998258 0.177659 0.500000 
547 1 0.008083 0.201103 0.500000 
548 1 0.028113 0.201727 0.500000 
549 1 0.048147 0.202367 0.500000 
550 1 0.068185 0.203017 0.500000 
551 1 0.088254 0.203739 0.500000 
552 1 0.108320 0.204470 0.500000 
553 1 0.128386 0.205215 0.500000 
554 1 0.148452 0.205971 0.500000 
555 1 0.168515 0.206742 0.500000 
556 1 0.188576 0.207527 0.500000 
557 1 0.208631 0.208325 0.500000 
558 1 0.239112 0.192717 0.500000 
559 1 0.228682 0.209139 0.500000 
560 1 0.259147 0.193534 0.500000 
561 1 0.248727 0.209967 0.500000 
562 1 0.279175 0.194362 0.500000 
563 1 0.268765 0.210807 0.500000 
564 1 0.299193 0.195201 0.500000 
565 1 0.288792 0.211659 0.500000 
566 1 0.319201 0.196045 0.500000 
567 1 0.339198 0.196892 0.500000 
568 1 0.359183 0.197741 0.500000 
569 1 0.379155 0.198586 0.500000 
570 1 0.399114 0.199426 0.500000 
571 1 0.419063 0.200251 0.500000 
572 1 0.439002 0.201054 0.500000 
573 1 0.458933 0.201834 0.500000 
574 1 0.478858 0.202584 0.500000 
575 1 0.498779 0.203303 0.500000 
576 1 0.518699 0.203982 0.500000 
577 1 0.538618 0.204624 0.500000 
578 1 0.558538 0.205227 0.500000 
579 1 0.578460 0.205792 0.500000 
580 1 0.598387 0.206320 0.500000 
581 1 0.618319 0.206814 0.500000 
582 1 0.638255 0.207275 0.500000 
583 1 0.658197 0.207707 0.500000 
584 1 0.678143 0.208107 0.500000 
585 1 0.708382 0.191593 0.500000 
586 1 0.698094 0.208480 0.500000 
587 1 0.728333 0.191931 0.500000 
588 1 0.718050 0.208824 0.500000 
589 1 0.748289 0.192243 0.500000 
590 1 0.738010 0.209144 0.500000 
591 1 0.768249 0.192531 0.500000 
592 1 0.757975 0.209439 0.500000 
593 1 0.788212 0.192797 0.500000 
594 1 0.777944 0.209711 0.500000 
595 1 0.808178 0.193044 0.500000 
596 1 0.797916 0.209963 0.500000 
597 1 0.828149 0.193275 0.500000 
598 1 0.817892 0.210195 0.500000 
599 1 0.848122 0.193489 0.500000 
600 1 0.837871 0.210413 0.500000 
601 1 0.868097 0.193690 0.500000 
602 1 0.857853 0.210616 0.500000 
603 1 0.888076 0.193878 0.500000 
604 1 0.877839 0.210804 0.500000 
605 1 0.908057 0.194053 0.500000 
606 1 0.897828 0.210983 0.500000 
607 1 0.928039 0.194223 0.500000 
608 1 0.917817 0.211150 0.500000 
609 1 0.948021 0.194385 0.500000 
610 1 0.937810 0.211311 0.500000 
611 1 0.957807 0.211443 0.500000 
612 1 0.968031 0.194496 0.500000 
613 1 0.977825 0.211543 0.500000 
614 1 0.988043 0.194599 0.500000 
615 1 0.997847 0.211634 0.500000 
616 1 0.017654 0.218157 0.500000 
617 1 0.037684 0.218790 0.500000 
618 1 0.057718 0.219436 0.500000 
619 1 0.077776 0.220127 0.500000 
620 1 0.097840 0.220858 0.500000 
621 1 0.117907 0.221602 0.500000 
622 1 0.137976 0.222360 0.500000 
623 1 0.158043 0.223132 0.500000 
624 1 0.178109 0.223920 0.500000 
625 1 0.198174 0.224724 0.500000 
626 1 0.218233 0.225544 0.500000 
627 1 0.238286 0.226380 0.500000 
628 1 0.258334 0.227230 0.500000 
629 1 0.278372 0.228096 0.500000 
630 1 0.298401 0.228973 0.500000 
631 1 0.308811 0.212520 0.500000 
632 1 0.318420 0.229858 0.500000 
633 1 0.328820 0.213388 0.500000 
634 1 0.338426 0.230752 0.500000 
635 1 0.348814 0.214259 0.500000 
636 1 0.358420 0.231647 0.500000 
637 1 0.368795 0.215129 0.500000 
638 1 0.388764 0.215995 0.500000 
639 1 0.408720 0.216849 0.500000 
640 1 0.428666 0.217684 0.500000 
641 1 0.448602 0.218497 0.500000 
642 1 0.468530 0.219277 0.500000 
643 1 0.488452 0.220024 0.500000 
644 1 0.508374 0.220732 0.500000 
645 1 0.528294 0.221398 0.500000 
646 1 0.548216 0.222024 0.500000 
647 1 0.568141 0.222607 0.500000 
648 1 0.588071 0.223152 0.500000 
649 1 0.608006 0.223660 0.500000 
650 1 0.627947 0.224134 0.500000 
651 1 0.647891 0.224576 0.500000 
652 1 0.667843 0.224986 0.500000 
653 1 0.687799 0.225366 0.500000 
654 1 0.707761 0.225719 0.500000 
655 1 0.727726 0.226045 0.500000 
656 1 0.747697 0.226348 0.500000 
657 1 0.767670 0.226625 0.500000 
658 1 0.787648 0.226882 0.500000 
659 1 0.807631 0.227118 0.500000 
660 1 0.827617 0.227337 0.500000 
661 1 0.847605 0.227542 0.500000 
662 1 0.867597 0.227732 0.500000 
663 1 0.887591 0.227911 0.500000 
664 1 0.907588 0.228079 0.500000 
665 1 0.927584 0.228237 0.500000 
666 1 0.947580 0.228392 0.500000 
667 1 0.967605 0.228489 0.500000 
668 1 0.987634 0.228577 0.500000 
669 1 0.007189 0.234587 0.500000 
670 1 0.027214 0.235215 0.500000 
671 1 0.047243 0.235854 0.500000 
672 1 0.067275 0.236508 0.500000 
673 1 0.087344 0.237239 0.500000 
674 1 0.107412 0.237982 0.500000 
675 1 0.127481 0.238738 0.500000 
676 1 0.147553 0.239510 0.500000 
677 1 0.167625 0.240299 0.500000 
678 1 0.187694 0.241106 0.500000 
679 1 0.207760 0.241931 0.500000 
680 1 0.227822 0.242774 0.500000 
681 1 0.247880 0.243633 0.500000 
682 1 0.267929 0.244509 0.500000 
683 1 0.287970 0.245402 0.500000 
684 1 0.308000 0.246304 0.500000 
685 1 0.328018 0.247218 0.500000 
686 1 0.348024 0.248138 0.500000 
687 1 0.378398 0.232540 0.500000 
688 1 0.368015 0.249060 0.500000 
689 1 0.398362 0.233425 0.500000 
690 1 0.387991 0.249977 0.500000 
691 1 0.418316 0.234292 0.500000 
692 1 0.407953 0.250878 0.500000 
693 1 0.438258 0.235140 0.500000 
694 1 0.427901 0.251762 0.500000 
695 1 0.458191 0.235957 0.500000 
696 1 0.478117 0.236734 0.500000 
697 1 0.498039 0.237473 0.500000 
698 1 0.517960 0.238168 0.500000 
699 1 0.537883 0.238817 0.500000 
700 1 0.557811 0.239422 0.500000 
701 1 0.577745 0.239983 0.500000 
702 1 0.597684 0.240507 0.500000 
703 1 0.617628 0.240993 0.500000 
704 1 0.637577 0.241446 0.500000 
705 1 0.657533 0.241866 0.500000 
706 1 0.677494 0.242255 0.500000 
707 1 0.697461 0.242615 0.500000 
708 1 0.717434 0.242948 0.500000 
709 1 0.737411 0.243257 0.500000 
710 1 0.757393 0.243542 0.500000 
711 1 0.777376 0.243802 0.500000 
712 1 0.797366 0.244041 0.500000 
713 1 0.817358 0.244263 0.500000 
714 1 0.837353 0.244469 0.500000 
715 1 0.857351 0.244661 0.500000 
716 1 0.877352 0.244840 0.500000 
717 1 0.897355 0.245008 0.500000 
718 1 0.917361 0.245166 0.500000 
719 1 0.937369 0.245316 0.500000 
720 1 0.957383 0.245436 0.500000 
721 1 0.977417 0.245522 0.500000 
722 1 0.997455 0.245600 0.500000 
723 1 0.016737 0.251640 0.500000 
724 1 0.006256 0.268068 0.500000 
725 1 0.036760 0.252274 0.500000 
726 1 0.026272 0.268696 0.500000 
727 1 0.056787 0.252921 0.500000 
728 1 0.046292 0.269335 0.500000 
729 1 0.076842 0.253616 0.500000 
730 1 0.066319 0.269991 0.500000 
731 1 0.096905 0.254356 0.500000 
732 1 0.086383 0.270726 0.500000 
733 1 0.116973 0.255109 0.500000 
734 1 0.137044 0.255877 0.500000 
735 1 0.157118 0.256665 0.500000 
736 1 0.177192 0.257473 0.500000 
737 1 0.197264 0.258301 0.500000 
738 1 0.217333 0.259148 0.500000 
739 1 0.237400 0.260014 0.500000 
740 1 0.257461 0.260899 0.500000 
741 1 0.277514 0.261804 0.500000 
742 1 0.297558 0.262724 0.500000 
743 1 0.317590 0.263658 0.500000 
744 1 0.337607 0.264602 0.500000 
745 1 0.357611 0.265551 0.500000 
746 1 0.377599 0.266501 0.500000 
747 1 0.397572 0.267438 0.500000 
748 1 0.417528 0.268361 0.500000 
749 1 0.437472 0.269256 0.500000 
750 1 0.447839 0.252616 0.500000 
751 1 0.457406 0.270113 0.500000 
752 1 0.467768 0.253432 0.500000 
753 1 0.477333 0.270924 0.500000 
754 1 0.487693 0.254204 0.500000 
755 1 0.507617 0.254930 0.500000 
756 1 0.527543 0.255606 0.500000 
757 1 0.547473 0.256235 0.500000 
758 1 0.567408 0.256815 0.500000 
759 1 0.587349 0.257354 0.500000 
760 1 0.607298 0.257855 0.500000 
761 1 0.627253 0.258318 0.500000 
762 1 0.647214 0.258747 0.500000 
763 1 0.667182 0.259146 0.500000 
764 1 0.687155 0.259513 0.500000 
765 1 0.707135 0.259854 0.500000 
766 1 0.727119 0.260167 0.500000 
767 1 0.747107 0.260456 0.500000 
768 1 0.767098 0.260725 0.500000 
769 1 0.787095 0.260966 0.500000 
770 1 0.807096 0.261190 0.500000 
771 1 0.827098 0.261398 0.500000 
772 1 0.847104 0.261591 0.500000 
773 1 0.867111 0.261771 0.500000 
774 1 0.887121 0.261938 0.500000 
775 1 0.907134 0.262094 0.500000 
776 1 0.927146 0.262243 0.500000 
777 1 0.947159 0.262387 0.500000 
778 1 0.967200 0.262468 0.500000 
779 1 0.987245 0.262544 0.500000 
780 1 0.015779 0.285121 0.500000 
781 1 0.035792 0.285753 0.500000 
782 1 0.055810 0.286400 0.500000 
783 1 0.075857 0.287096 0.500000 
784 1 0.095914 0.287837 0.500000 
785 1 0.106449 0.271474 0.500000 
786 1 0.115979 0.288594 0.500000 
787 1 0.126519 0.272239 0.500000 
788 1 0.136049 0.289372 0.500000 
789 1 0.146592 0.273022 0.500000 
790 1 0.156123 0.290173 0.500000 
791 1 0.166667 0.273827 0.500000 
792 1 0.176200 0.290994 0.500000 
793 1 0.186744 0.274654 0.500000 
794 1 0.206820 0.275503 0.500000 
795 1 0.226894 0.276374 0.500000 
796 1 0.246964 0.277265 0.500000 
797 1 0.267029 0.278180 0.500000 
798 1 0.287087 0.279115 0.500000 
799 1 0.307133 0.280067 0.500000 
800 1 0.327165 0.281035 0.500000 
801 1 0.347183 0.282009 0.500000 
802 1 0.367185 0.282993 0.500000 
803 1 0.387170 0.283968 0.500000 
804 1 0.407137 0.284933 0.500000 
805 1 0.427090 0.285872 0.500000 
806 1 0.447030 0.286775 0.500000 
807 1 0.466962 0.287630 0.500000 
808 1 0.497259 0.271685 0.500000 
809 1 0.486889 0.288430 0.500000 
810 1 0.506818 0.289171 0.500000 
811 1 0.517186 0.272391 0.500000 
812 1 0.526751 0.289852 0.500000 
813 1 0.537117 0.273044 0.500000 
814 1 0.546692 0.290478 0.500000 
815 1 0.557056 0.273646 0.500000 
816 1 0.577001 0.274201 0.500000 
817 1 0.596954 0.274716 0.500000 
818 1 0.616916 0.275191 0.500000 
819 1 0.636885 0.275631 0.500000 
820 1 0.656859 0.276038 0.500000 
821 1 0.676841 0.276413 0.500000 
822 1 0.696828 0.276760 0.500000 
823 1 0.716821 0.277079 0.500000 
824 1 0.736818 0.277374 0.500000 
825 1 0.756817 0.277646 0.500000 
826 1 0.776822 0.277894 0.500000 
827 1 0.796830 0.278119 0.500000 
828 1 0.816841 0.278329 0.500000 
829 1 0.836855 0.278522 0.500000 
830 1 0.856869 0.278703 0.500000 
831 1 0.876886 0.278870 0.500000 
832 1 0.896906 0.279024 0.500000 
833 1 0.916927 0.279171 0.500000 
834 1 0.936951 0.279311 0.500000 
835 1 0.956982 0.279417 0.500000 
836 1 0.977036 0.279488 0.500000 
837 1 0.997089 0.279555 0.500000 
838 1 0.005284 0.301547 0.500000 
839 1 0.025288 0.302175 0.500000 
840 1 0.045299 0.302815 0.500000 
841 1 0.065313 0.303468 0.500000 
842 1 0.085368 0.304201 0.500000 
843 1 0.105426 0.304950 0.500000 
844 1 0.125490 0.305718 0.500000 
845 1 0.145561 0.306510 0.500000 
846 1 0.165637 0.307326 0.500000 
847 1 0.196280 0.291841 0.500000 
848 1 0.185716 0.308167 0.500000 
849 1 0.216359 0.292714 0.500000 
850 1 0.205797 0.309036 0.500000 
851 1 0.236440 0.293609 0.500000 
852 1 0.225882 0.309931 0.500000 
853 1 0.256515 0.294531 0.500000 
854 1 0.245965 0.310856 0.500000 
855 1 0.276584 0.295477 0.500000 
856 1 0.266047 0.311810 0.500000 
857 1 0.296645 0.296445 0.500000 
858 1 0.316695 0.297433 0.500000 
859 1 0.336730 0.298435 0.500000 
860 1 0.356746 0.299449 0.500000 
861 1 0.376746 0.300464 0.500000 
862 1 0.396726 0.301472 0.500000 
863 1 0.416689 0.302459 0.500000 
864 1 0.436636 0.303413 0.500000 
865 1 0.456571 0.304319 0.500000 
866 1 0.476500 0.305164 0.500000 
867 1 0.496431 0.305943 0.500000 
868 1 0.516368 0.306657 0.500000 
869 1 0.536313 0.307308 0.500000 
870 1 0.566641 0.291051 0.500000 
871 1 0.556267 0.307902 0.500000 
872 1 0.586600 0.291578 0.500000 
873 1 0.576230 0.308444 0.500000 
874 1 0.606568 0.292066 0.500000 
875 1 0.596205 0.308943 0.500000 
876 1 0.626545 0.292515 0.500000 
877 1 0.616190 0.309402 0.500000 
878 1 0.646528 0.292931 0.500000 
879 1 0.636183 0.309826 0.500000 
880 1 0.666518 0.293315 0.500000 
881 1 0.686514 0.293668 0.500000 