ITEM: TIMESTEP
4700
ITEM: NUMBER OF ATOMS
2850
ITEM: BOX BOUNDS ss ss pp
-28.0536 28.3253 
-28.9988 28.9984 
-0.5 0.5 
ITEM: ATOMS id type xs ys zs
1 1 0.012661 0.000000 0.500000 
2 1 0.032688 0.000597 0.500000 
3 1 0.052715 0.001202 0.500000 
4 1 0.072742 0.001814 0.500000 
5 1 0.092767 0.002433 0.500000 
6 1 0.112794 0.003060 0.500000 
7 1 0.132817 0.003697 0.500000 
8 1 0.152841 0.004338 0.500000 
9 1 0.172861 0.004988 0.500000 
10 1 0.192879 0.005643 0.500000 
11 1 0.212895 0.006305 0.500000 
12 1 0.232906 0.006973 0.500000 
13 1 0.252912 0.007645 0.500000 
14 1 0.272914 0.008319 0.500000 
15 1 0.292911 0.008997 0.500000 
16 1 0.312901 0.009676 0.500000 
17 1 0.332885 0.010356 0.500000 
18 1 0.352861 0.011033 0.500000 
19 1 0.372830 0.011707 0.500000 
20 1 0.392791 0.012376 0.500000 
21 1 0.022340 0.017073 0.500000 
22 1 0.042369 0.017677 0.500000 
23 1 0.062397 0.018289 0.500000 
24 1 0.082426 0.018911 0.500000 
25 1 0.102455 0.019539 0.500000 
26 1 0.122484 0.020177 0.500000 
27 1 0.142511 0.020822 0.500000 
28 1 0.162536 0.021475 0.500000 
29 1 0.182559 0.022136 0.500000 
30 1 0.202579 0.022803 0.500000 
31 1 0.222596 0.023475 0.500000 
32 1 0.242610 0.024155 0.500000 
33 1 0.262618 0.024839 0.500000 
34 1 0.282622 0.025527 0.500000 
35 1 0.302619 0.026217 0.500000 
36 1 0.322610 0.026908 0.500000 
37 1 0.342593 0.027600 0.500000 
38 1 0.362570 0.028289 0.500000 
39 1 0.382537 0.028974 0.500000 
40 1 0.402497 0.029655 0.500000 
41 1 0.412744 0.013039 0.500000 
42 1 0.422448 0.030326 0.500000 
43 1 0.432688 0.013694 0.500000 
44 1 0.442390 0.030989 0.500000 
45 1 0.452624 0.014337 0.500000 
46 1 0.462324 0.031639 0.500000 
47 1 0.472553 0.014968 0.500000 
48 1 0.482250 0.032276 0.500000 
49 1 0.492474 0.015584 0.500000 
50 1 0.512388 0.016184 0.500000 
51 1 0.532295 0.016766 0.500000 
52 1 0.552198 0.017330 0.500000 
53 1 0.572095 0.017873 0.500000 
54 1 0.591989 0.018396 0.500000 
55 1 0.611880 0.018896 0.500000 
56 1 0.631769 0.019373 0.500000 
57 1 0.651657 0.019829 0.500000 
58 1 0.671546 0.020261 0.500000 
59 1 0.691436 0.020670 0.500000 
60 1 0.711328 0.021058 0.500000 
61 1 0.731222 0.021423 0.500000 
62 1 0.751120 0.021768 0.500000 
63 1 0.771021 0.022094 0.500000 
64 1 0.790927 0.022399 0.500000 
65 1 0.810837 0.022687 0.500000 
66 1 0.830751 0.022958 0.500000 
67 1 0.850671 0.023211 0.500000 
68 1 0.870595 0.023449 0.500000 
69 1 0.890525 0.023674 0.500000 
70 1 0.910459 0.023884 0.500000 
71 1 0.930398 0.024080 0.500000 
72 1 0.950341 0.024267 0.500000 
73 1 0.970290 0.024443 0.500000 
74 1 0.990243 0.024606 0.500000 
75 1 0.011983 0.033545 0.500000 
76 1 0.032014 0.034148 0.500000 
77 1 0.021650 0.050615 0.500000 
78 1 0.052044 0.034760 0.500000 
79 1 0.041680 0.051227 0.500000 
80 1 0.072075 0.035381 0.500000 
81 1 0.061715 0.051847 0.500000 
82 1 0.092107 0.036012 0.500000 
83 1 0.081755 0.052483 0.500000 
84 1 0.112138 0.036650 0.500000 
85 1 0.132168 0.037297 0.500000 
86 1 0.152197 0.037952 0.500000 
87 1 0.172226 0.038617 0.500000 
88 1 0.192251 0.039288 0.500000 
89 1 0.212274 0.039967 0.500000 
90 1 0.232293 0.040654 0.500000 
91 1 0.252309 0.041345 0.500000 
92 1 0.272318 0.042042 0.500000 
93 1 0.292324 0.042743 0.500000 
94 1 0.312323 0.043447 0.500000 
95 1 0.332314 0.044150 0.500000 
96 1 0.352297 0.044856 0.500000 
97 1 0.372273 0.045557 0.500000 
98 1 0.392240 0.046254 0.500000 
99 1 0.412198 0.046944 0.500000 
100 1 0.432147 0.047626 0.500000 
101 1 0.452087 0.048297 0.500000 
102 1 0.472018 0.048954 0.500000 
103 1 0.502167 0.032896 0.500000 
104 1 0.491940 0.049595 0.500000 
105 1 0.522078 0.033498 0.500000 
106 1 0.511855 0.050220 0.500000 
107 1 0.541983 0.034081 0.500000 
108 1 0.531762 0.050823 0.500000 
109 1 0.561882 0.034643 0.500000 
110 1 0.551663 0.051406 0.500000 
111 1 0.581777 0.035184 0.500000 
112 1 0.571560 0.051966 0.500000 
113 1 0.601668 0.035702 0.500000 
114 1 0.591452 0.052503 0.500000 
115 1 0.621558 0.036195 0.500000 
116 1 0.641446 0.036666 0.500000 
117 1 0.661334 0.037110 0.500000 
118 1 0.681223 0.037533 0.500000 
119 1 0.701115 0.037931 0.500000 
120 1 0.721007 0.038307 0.500000 
121 1 0.740905 0.038660 0.500000 
122 1 0.760806 0.038993 0.500000 
123 1 0.780711 0.039305 0.500000 
124 1 0.800620 0.039597 0.500000 
125 1 0.820536 0.039873 0.500000 
126 1 0.840456 0.040130 0.500000 
127 1 0.860382 0.040369 0.500000 
128 1 0.880312 0.040595 0.500000 
129 1 0.900248 0.040807 0.500000 
130 1 0.920188 0.041005 0.500000 
131 1 0.940134 0.041192 0.500000 
132 1 0.960084 0.041368 0.500000 
133 1 0.980040 0.041531 0.500000 
134 1 1.000000 0.041686 0.500000 
135 1 0.011275 0.067077 0.500000 
136 1 0.031308 0.067688 0.500000 
137 1 0.051342 0.068307 0.500000 
138 1 0.071376 0.068936 0.500000 
139 1 0.091425 0.069591 0.500000 
140 1 0.101792 0.053128 0.500000 
141 1 0.111468 0.070251 0.500000 
142 1 0.121828 0.053780 0.500000 
143 1 0.131507 0.070918 0.500000 
144 1 0.141861 0.054441 0.500000 
145 1 0.151544 0.071593 0.500000 
146 1 0.161893 0.055111 0.500000 
147 1 0.171578 0.072278 0.500000 
148 1 0.181922 0.055789 0.500000 
149 1 0.201948 0.056474 0.500000 
150 1 0.221968 0.057170 0.500000 
151 1 0.241985 0.057870 0.500000 
152 1 0.261999 0.058574 0.500000 
153 1 0.282008 0.059285 0.500000 
154 1 0.302007 0.059999 0.500000 
155 1 0.321999 0.060714 0.500000 
156 1 0.341982 0.061433 0.500000 
157 1 0.361958 0.062148 0.500000 
158 1 0.381926 0.062859 0.500000 
159 1 0.401884 0.063565 0.500000 
160 1 0.421833 0.064263 0.500000 
161 1 0.441775 0.064952 0.500000 
162 1 0.461709 0.065628 0.500000 
163 1 0.481633 0.066287 0.500000 
164 1 0.501551 0.066929 0.500000 
165 1 0.521463 0.067550 0.500000 
166 1 0.541368 0.068151 0.500000 
167 1 0.561269 0.068729 0.500000 
168 1 0.581166 0.069281 0.500000 
169 1 0.601061 0.069806 0.500000 
170 1 0.611341 0.053013 0.500000 
171 1 0.620956 0.070304 0.500000 
172 1 0.631230 0.053499 0.500000 
173 1 0.640851 0.070778 0.500000 
174 1 0.651117 0.053960 0.500000 
175 1 0.671006 0.054396 0.500000 
176 1 0.660745 0.071227 0.500000 
177 1 0.690897 0.054806 0.500000 
178 1 0.680642 0.071648 0.500000 
179 1 0.710789 0.055192 0.500000 
180 1 0.700542 0.072044 0.500000 
181 1 0.730685 0.055554 0.500000 
182 1 0.720446 0.072415 0.500000 
183 1 0.750586 0.055894 0.500000 
184 1 0.770490 0.056213 0.500000 
185 1 0.790400 0.056511 0.500000 
186 1 0.810316 0.056789 0.500000 
187 1 0.830238 0.057049 0.500000 
188 1 0.850164 0.057294 0.500000 
189 1 0.870095 0.057522 0.500000 
190 1 0.890032 0.057734 0.500000 
191 1 0.909975 0.057934 0.500000 
192 1 0.929922 0.058120 0.500000 
193 1 0.949875 0.058294 0.500000 
194 1 0.969833 0.058458 0.500000 
195 1 0.989796 0.058613 0.500000 
196 1 0.020924 0.084144 0.500000 
197 1 0.040959 0.084763 0.500000 
198 1 0.060994 0.085390 0.500000 
199 1 0.081044 0.086041 0.500000 
200 1 0.101091 0.086708 0.500000 
201 1 0.121137 0.087382 0.500000 
202 1 0.141179 0.088063 0.500000 
203 1 0.161218 0.088754 0.500000 
204 1 0.191608 0.072969 0.500000 
205 1 0.181254 0.089453 0.500000 
206 1 0.211633 0.073672 0.500000 
207 1 0.201283 0.090161 0.500000 
208 1 0.221309 0.090879 0.500000 
209 1 0.231653 0.074382 0.500000 
210 1 0.241329 0.091603 0.500000 
211 1 0.251668 0.075093 0.500000 
212 1 0.261342 0.092331 0.500000 
213 1 0.271678 0.075814 0.500000 
214 1 0.291682 0.076539 0.500000 
215 1 0.311677 0.077267 0.500000 
216 1 0.331663 0.077998 0.500000 
217 1 0.351641 0.078729 0.500000 
218 1 0.371611 0.079454 0.500000 
219 1 0.391572 0.080176 0.500000 
220 1 0.411523 0.080893 0.500000 
221 1 0.431466 0.081599 0.500000 
222 1 0.451400 0.082293 0.500000 
223 1 0.471328 0.082970 0.500000 
224 1 0.491249 0.083630 0.500000 
225 1 0.511164 0.084271 0.500000 
226 1 0.531072 0.084889 0.500000 
227 1 0.550976 0.085483 0.500000 
228 1 0.570878 0.086054 0.500000 
229 1 0.590779 0.086595 0.500000 
230 1 0.610680 0.087107 0.500000 
231 1 0.630577 0.087594 0.500000 
232 1 0.650477 0.088055 0.500000 
233 1 0.670380 0.088488 0.500000 
234 1 0.690286 0.088893 0.500000 
235 1 0.710195 0.089275 0.500000 
236 1 0.730108 0.089633 0.500000 
237 1 0.740353 0.072764 0.500000 
238 1 0.750024 0.089967 0.500000 
239 1 0.760264 0.073091 0.500000 
240 1 0.769944 0.090282 0.500000 
241 1 0.780179 0.073397 0.500000 
242 1 0.789869 0.090573 0.500000 
243 1 0.800099 0.073681 0.500000 
244 1 0.809798 0.090844 0.500000 
245 1 0.820024 0.073947 0.500000 
246 1 0.829731 0.091099 0.500000 
247 1 0.839953 0.074196 0.500000 
248 1 0.849668 0.091337 0.500000 
249 1 0.859887 0.074429 0.500000 
250 1 0.869609 0.091558 0.500000 
251 1 0.879825 0.074646 0.500000 
252 1 0.889554 0.091766 0.500000 
253 1 0.899768 0.074850 0.500000 
254 1 0.909502 0.091962 0.500000 
255 1 0.919716 0.075042 0.500000 
256 1 0.929455 0.092146 0.500000 
257 1 0.939669 0.075220 0.500000 
258 1 0.949407 0.092323 0.500000 
259 1 0.959621 0.075390 0.500000 
260 1 0.979588 0.075542 0.500000 
261 1 0.999557 0.075685 0.500000 
262 1 0.010532 0.100598 0.500000 
263 1 0.030566 0.101214 0.500000 
264 1 0.050602 0.101839 0.500000 
265 1 0.070640 0.102476 0.500000 
266 1 0.090697 0.103153 0.500000 
267 1 0.110750 0.103833 0.500000 
268 1 0.130798 0.104522 0.500000 
269 1 0.150842 0.105217 0.500000 
270 1 0.170883 0.105923 0.500000 
271 1 0.190920 0.106638 0.500000 
272 1 0.210951 0.107363 0.500000 
273 1 0.230976 0.108096 0.500000 
274 1 0.250995 0.108836 0.500000 
275 1 0.271006 0.109581 0.500000 
276 1 0.281349 0.093067 0.500000 
277 1 0.291011 0.110332 0.500000 
278 1 0.301349 0.093806 0.500000 
279 1 0.311006 0.111090 0.500000 
280 1 0.321338 0.094551 0.500000 
281 1 0.330992 0.111850 0.500000 
282 1 0.341320 0.095296 0.500000 
283 1 0.361295 0.096038 0.500000 
284 1 0.381258 0.096777 0.500000 
285 1 0.401213 0.097511 0.500000 
286 1 0.421159 0.098236 0.500000 
287 1 0.441096 0.098950 0.500000 
288 1 0.461026 0.099645 0.500000 
289 1 0.480949 0.100325 0.500000 
290 1 0.500865 0.100986 0.500000 
291 1 0.520775 0.101622 0.500000 
292 1 0.540683 0.102233 0.500000 
293 1 0.560588 0.102821 0.500000 
294 1 0.580493 0.103380 0.500000 
295 1 0.600397 0.103907 0.500000 
296 1 0.620300 0.104407 0.500000 
297 1 0.640204 0.104880 0.500000 
298 1 0.660110 0.105325 0.500000 
299 1 0.680021 0.105741 0.500000 
300 1 0.699936 0.106132 0.500000 
301 1 0.719853 0.106501 0.500000 
302 1 0.739773 0.106844 0.500000 
303 1 0.759698 0.107165 0.500000 
304 1 0.779628 0.107464 0.500000 
305 1 0.799563 0.107742 0.500000 
306 1 0.819501 0.108002 0.500000 
307 1 0.839444 0.108245 0.500000 
308 1 0.859389 0.108471 0.500000 
309 1 0.879335 0.108683 0.500000 
310 1 0.899286 0.108883 0.500000 
311 1 0.919241 0.109070 0.500000 
312 1 0.939199 0.109250 0.500000 
313 1 0.969375 0.092475 0.500000 
314 1 0.959160 0.109410 0.500000 
315 1 0.989349 0.092617 0.500000 
316 1 0.979136 0.109550 0.500000 
317 1 0.999117 0.109681 0.500000 
318 1 0.020165 0.117663 0.500000 
319 1 0.040201 0.118287 0.500000 
320 1 0.060239 0.118920 0.500000 
321 1 0.080291 0.119583 0.500000 
322 1 0.100348 0.120271 0.500000 
323 1 0.120402 0.120967 0.500000 
324 1 0.140452 0.121668 0.500000 
325 1 0.160497 0.122380 0.500000 
326 1 0.180539 0.123102 0.500000 
327 1 0.200576 0.123834 0.500000 
328 1 0.220608 0.124575 0.500000 
329 1 0.240632 0.125323 0.500000 
330 1 0.260653 0.126080 0.500000 
331 1 0.280664 0.126843 0.500000 
332 1 0.300665 0.127614 0.500000 
333 1 0.320659 0.128388 0.500000 
334 1 0.340642 0.129162 0.500000 
335 1 0.350971 0.112607 0.500000 
336 1 0.360616 0.129938 0.500000 
337 1 0.370939 0.113365 0.500000 
338 1 0.380580 0.130710 0.500000 
339 1 0.390897 0.114117 0.500000 
340 1 0.400534 0.131473 0.500000 
341 1 0.410847 0.114861 0.500000 
342 1 0.420478 0.132227 0.500000 
343 1 0.430789 0.115594 0.500000 
344 1 0.450722 0.116311 0.500000 
345 1 0.470647 0.117011 0.500000 
346 1 0.490566 0.117692 0.500000 
347 1 0.510479 0.118348 0.500000 
348 1 0.530390 0.118979 0.500000 
349 1 0.550298 0.119584 0.500000 
350 1 0.570204 0.120160 0.500000 
351 1 0.590111 0.120704 0.500000 
352 1 0.610017 0.121218 0.500000 
353 1 0.629925 0.121705 0.500000 
354 1 0.649836 0.122162 0.500000 
355 1 0.669751 0.122590 0.500000 
356 1 0.689668 0.122990 0.500000 
357 1 0.709590 0.123365 0.500000 
358 1 0.729517 0.123719 0.500000 
359 1 0.749447 0.124049 0.500000 
360 1 0.769381 0.124353 0.500000 
361 1 0.789320 0.124638 0.500000 
362 1 0.809261 0.124905 0.500000 
363 1 0.829207 0.125152 0.500000 
364 1 0.849156 0.125383 0.500000 
365 1 0.869108 0.125600 0.500000 
366 1 0.889062 0.125804 0.500000 
367 1 0.909019 0.125994 0.500000 
368 1 0.928979 0.126176 0.500000 
369 1 0.948940 0.126349 0.500000 
370 1 0.968919 0.126487 0.500000 
371 1 0.988905 0.126616 0.500000 
372 1 0.009754 0.134110 0.500000 
373 1 0.029790 0.134729 0.500000 
374 1 0.019367 0.151171 0.500000 
375 1 0.049825 0.135360 0.500000 
376 1 0.039403 0.151799 0.500000 
377 1 0.069865 0.136003 0.500000 
378 1 0.089929 0.136696 0.500000 
379 1 0.109988 0.137397 0.500000 
380 1 0.130044 0.138107 0.500000 
381 1 0.150094 0.138824 0.500000 
382 1 0.170142 0.139551 0.500000 
383 1 0.190186 0.140290 0.500000 
384 1 0.210226 0.141039 0.500000 
385 1 0.230258 0.141798 0.500000 
386 1 0.250284 0.142561 0.500000 
387 1 0.270304 0.143338 0.500000 
388 1 0.290312 0.144122 0.500000 
389 1 0.310312 0.144910 0.500000 
390 1 0.330304 0.145702 0.500000 
391 1 0.350283 0.146494 0.500000 
392 1 0.370254 0.147285 0.500000 
393 1 0.390212 0.148069 0.500000 
394 1 0.410160 0.148846 0.500000 
395 1 0.440414 0.132965 0.500000 
396 1 0.430101 0.149607 0.500000 
397 1 0.460341 0.133688 0.500000 
398 1 0.450033 0.150353 0.500000 
399 1 0.480263 0.134388 0.500000 
400 1 0.469959 0.151075 0.500000 
401 1 0.500179 0.135066 0.500000 
402 1 0.489877 0.151776 0.500000 
403 1 0.520092 0.135718 0.500000 
404 1 0.540003 0.136343 0.500000 
405 1 0.559913 0.136936 0.500000 
406 1 0.579821 0.137496 0.500000 
407 1 0.599731 0.138027 0.500000 
408 1 0.619642 0.138529 0.500000 
409 1 0.639558 0.138999 0.500000 
410 1 0.659475 0.139439 0.500000 
411 1 0.679397 0.139849 0.500000 
412 1 0.699323 0.140232 0.500000 
413 1 0.719252 0.140592 0.500000 
414 1 0.739187 0.140930 0.500000 
415 1 0.759127 0.141245 0.500000 
416 1 0.779069 0.141534 0.500000 
417 1 0.799016 0.141807 0.500000 
418 1 0.818967 0.142061 0.500000 
419 1 0.838919 0.142297 0.500000 
420 1 0.858875 0.142518 0.500000 
421 1 0.878834 0.142724 0.500000 
422 1 0.898795 0.142919 0.500000 
423 1 0.918759 0.143101 0.500000 
424 1 0.938727 0.143275 0.500000 
425 1 0.958701 0.143428 0.500000 
426 1 0.978689 0.143555 0.500000 
427 1 0.998682 0.143674 0.500000 
428 1 0.008938 0.167610 0.500000 
429 1 0.028972 0.168234 0.500000 
430 1 0.049008 0.168868 0.500000 
431 1 0.059442 0.152437 0.500000 
432 1 0.069047 0.169517 0.500000 
433 1 0.079499 0.153111 0.500000 
434 1 0.089115 0.170225 0.500000 
435 1 0.099559 0.153816 0.500000 
436 1 0.109180 0.170943 0.500000 
437 1 0.119619 0.154531 0.500000 
438 1 0.139675 0.155254 0.500000 
439 1 0.129242 0.171671 0.500000 
440 1 0.159730 0.155987 0.500000 
441 1 0.179780 0.156731 0.500000 
442 1 0.199826 0.157487 0.500000 
443 1 0.219867 0.158255 0.500000 
444 1 0.239902 0.159030 0.500000 
445 1 0.259928 0.159814 0.500000 
446 1 0.279946 0.160612 0.500000 
447 1 0.299954 0.161415 0.500000 
448 1 0.319954 0.162222 0.500000 
449 1 0.339942 0.163034 0.500000 
450 1 0.359920 0.163842 0.500000 
451 1 0.379885 0.164648 0.500000 
452 1 0.399839 0.165449 0.500000 
453 1 0.419783 0.166234 0.500000 
454 1 0.439719 0.167003 0.500000 
455 1 0.459649 0.167752 0.500000 
456 1 0.479570 0.168476 0.500000 
457 1 0.499487 0.169173 0.500000 
458 1 0.509791 0.152449 0.500000 
459 1 0.519400 0.169843 0.500000 
460 1 0.529703 0.153095 0.500000 
461 1 0.539314 0.170477 0.500000 
462 1 0.549615 0.153707 0.500000 
463 1 0.559226 0.171076 0.500000 
464 1 0.569526 0.154289 0.500000 
465 1 0.579140 0.171640 0.500000 
466 1 0.589438 0.154833 0.500000 
467 1 0.609352 0.155351 0.500000 
468 1 0.629270 0.155834 0.500000 
469 1 0.649193 0.156288 0.500000 
470 1 0.669119 0.156709 0.500000 
471 1 0.689050 0.157100 0.500000 
472 1 0.708985 0.157468 0.500000 
473 1 0.728921 0.157814 0.500000 
474 1 0.748864 0.158134 0.500000 
475 1 0.768813 0.158434 0.500000 
476 1 0.788763 0.158711 0.500000 
477 1 0.808716 0.158968 0.500000 
478 1 0.828674 0.159210 0.500000 
479 1 0.848636 0.159435 0.500000 
480 1 0.868601 0.159645 0.500000 
481 1 0.888568 0.159843 0.500000 
482 1 0.908536 0.160027 0.500000 
483 1 0.928507 0.160202 0.500000 
484 1 0.948477 0.160370 0.500000 
485 1 0.968470 0.160496 0.500000 
486 1 0.988467 0.160611 0.500000 
487 1 0.018532 0.184668 0.500000 
488 1 0.038566 0.185299 0.500000 
489 1 0.058602 0.185942 0.500000 
490 1 0.078662 0.186626 0.500000 
491 1 0.098725 0.187345 0.500000 
492 1 0.118790 0.188076 0.500000 
493 1 0.138855 0.188817 0.500000 
494 1 0.149302 0.172408 0.500000 
495 1 0.158916 0.189572 0.500000 
496 1 0.169358 0.173160 0.500000 
497 1 0.178974 0.190340 0.500000 
498 1 0.189410 0.173921 0.500000 
499 1 0.199029 0.191118 0.500000 
500 1 0.209457 0.174693 0.500000 
501 1 0.219079 0.191910 0.500000 
502 1 0.229500 0.175480 0.500000 
503 1 0.249535 0.176275 0.500000 
504 1 0.269562 0.177082 0.500000 
505 1 0.289579 0.177900 0.500000 
506 1 0.309588 0.178722 0.500000 
507 1 0.329586 0.179553 0.500000 
508 1 0.349573 0.180381 0.500000 
509 1 0.369547 0.181210 0.500000 
510 1 0.389507 0.182033 0.500000 
511 1 0.409457 0.182844 0.500000 
512 1 0.429397 0.183639 0.500000 
513 1 0.449329 0.184413 0.500000 
514 1 0.469257 0.185166 0.500000 
515 1 0.489177 0.185888 0.500000 
516 1 0.509091 0.186583 0.500000 
517 1 0.529007 0.187240 0.500000 
518 1 0.548921 0.187863 0.500000 
519 1 0.568837 0.188444 0.500000 
520 1 0.588755 0.188991 0.500000 
521 1 0.599057 0.172171 0.500000 
522 1 0.608679 0.189503 0.500000 
523 1 0.618979 0.172669 0.500000 
524 1 0.628608 0.189982 0.500000 
525 1 0.638904 0.173134 0.500000 
526 1 0.648541 0.190428 0.500000 
527 1 0.658834 0.173569 0.500000 
528 1 0.668480 0.190841 0.500000 
529 1 0.678768 0.173970 0.500000 
530 1 0.688421 0.191224 0.500000 
531 1 0.698706 0.174345 0.500000 
532 1 0.718647 0.174700 0.500000 
533 1 0.738594 0.175027 0.500000 
534 1 0.758546 0.175331 0.500000 
535 1 0.778501 0.175616 0.500000 
536 1 0.798460 0.175878 0.500000 
537 1 0.818421 0.176123 0.500000 
538 1 0.838388 0.176352 0.500000 
539 1 0.858358 0.176565 0.500000 
540 1 0.878331 0.176766 0.500000 
541 1 0.898306 0.176954 0.500000 
542 1 0.918283 0.177129 0.500000 
543 1 0.938263 0.177296 0.500000 
544 1 0.958249 0.177440 0.500000 
545 1 0.978251 0.177553 0.500000 
546 1 0.998258 0.177659 0.500000 
547 1 0.008083 0.201103 0.500000 
548 1 0.028113 0.201727 0.500000 
549 1 0.048147 0.202367 0.500000 
550 1 0.068185 0.203017 0.500000 
551 1 0.088256 0.203740 0.500000 
552 1 0.108322 0.204470 0.500000 
553 1 0.128390 0.205213 0.500000 
554 1 0.148456 0.205973 0.500000 
555 1 0.168520 0.206745 0.500000 
556 1 0.188582 0.207527 0.500000 
557 1 0.208640 0.208325 0.500000 
558 1 0.239124 0.192717 0.500000 
559 1 0.228693 0.209138 0.500000 
560 1 0.259160 0.193534 0.500000 
561 1 0.248740 0.209967 0.500000 
562 1 0.279188 0.194364 0.500000 
563 1 0.268779 0.210808 0.500000 
564 1 0.299208 0.195203 0.500000 
565 1 0.288808 0.211660 0.500000 
566 1 0.319215 0.196048 0.500000 
567 1 0.339212 0.196900 0.500000 
568 1 0.359194 0.197752 0.500000 
569 1 0.379163 0.198598 0.500000 
570 1 0.399122 0.199436 0.500000 
571 1 0.419069 0.200260 0.500000 
572 1 0.439006 0.201062 0.500000 
573 1 0.458935 0.201841 0.500000 
574 1 0.478858 0.202594 0.500000 
575 1 0.498776 0.203315 0.500000 
576 1 0.518691 0.203997 0.500000 
577 1 0.538607 0.204642 0.500000 
578 1 0.558526 0.205247 0.500000 
579 1 0.578447 0.205809 0.500000 
580 1 0.598372 0.206337 0.500000 
581 1 0.618303 0.206830 0.500000 
582 1 0.638240 0.207288 0.500000 
583 1 0.658183 0.207712 0.500000 
584 1 0.678128 0.208106 0.500000 
585 1 0.708366 0.191584 0.500000 
586 1 0.698078 0.208473 0.500000 
587 1 0.728319 0.191919 0.500000 
588 1 0.718034 0.208812 0.500000 
589 1 0.748275 0.192230 0.500000 
590 1 0.737995 0.209131 0.500000 
591 1 0.768235 0.192520 0.500000 
592 1 0.757960 0.209427 0.500000 
593 1 0.788198 0.192789 0.500000 
594 1 0.777930 0.209701 0.500000 
595 1 0.808166 0.193039 0.500000 
596 1 0.797904 0.209956 0.500000 
597 1 0.828137 0.193271 0.500000 
598 1 0.817880 0.210191 0.500000 
599 1 0.848113 0.193486 0.500000 
600 1 0.837861 0.210409 0.500000 
601 1 0.868091 0.193689 0.500000 
602 1 0.857846 0.210613 0.500000 
603 1 0.888070 0.193878 0.500000 
604 1 0.877833 0.210805 0.500000 
605 1 0.908054 0.194057 0.500000 
606 1 0.897822 0.210984 0.500000 
607 1 0.928038 0.194225 0.500000 
608 1 0.917813 0.211153 0.500000 
609 1 0.948021 0.194385 0.500000 
610 1 0.937808 0.211313 0.500000 
611 1 0.957807 0.211443 0.500000 
612 1 0.968031 0.194496 0.500000 
613 1 0.977825 0.211543 0.500000 
614 1 0.988043 0.194599 0.500000 
615 1 0.997847 0.211634 0.500000 
616 1 0.017654 0.218157 0.500000 
617 1 0.037684 0.218790 0.500000 
618 1 0.057718 0.219436 0.500000 
619 1 0.077776 0.220126 0.500000 
620 1 0.097843 0.220858 0.500000 
621 1 0.117910 0.221600 0.500000 
622 1 0.137977 0.222360 0.500000 
623 1 0.158046 0.223134 0.500000 
624 1 0.178115 0.223921 0.500000 
625 1 0.198180 0.224724 0.500000 
626 1 0.218241 0.225542 0.500000 
627 1 0.238296 0.226379 0.500000 
628 1 0.258345 0.227230 0.500000 
629 1 0.278386 0.228095 0.500000 
630 1 0.298415 0.228975 0.500000 
631 1 0.308827 0.212525 0.500000 
632 1 0.318434 0.229864 0.500000 
633 1 0.328833 0.213394 0.500000 
634 1 0.338439 0.230763 0.500000 
635 1 0.348826 0.214271 0.500000 
636 1 0.358432 0.231662 0.500000 
637 1 0.368807 0.215143 0.500000 
638 1 0.388775 0.216007 0.500000 
639 1 0.408730 0.216862 0.500000 
640 1 0.428672 0.217693 0.500000 
641 1 0.448604 0.218507 0.500000 
642 1 0.468528 0.219287 0.500000 
643 1 0.488449 0.220038 0.500000 
644 1 0.508367 0.220749 0.500000 
645 1 0.528285 0.221415 0.500000 
646 1 0.548206 0.222043 0.500000 
647 1 0.568131 0.222628 0.500000 
648 1 0.588058 0.223172 0.500000 
649 1 0.607991 0.223678 0.500000 
650 1 0.627932 0.224150 0.500000 
651 1 0.647876 0.224586 0.500000 
652 1 0.667825 0.224989 0.500000 
653 1 0.687783 0.225364 0.500000 
654 1 0.707745 0.225711 0.500000 
655 1 0.727710 0.226034 0.500000 
656 1 0.747680 0.226336 0.500000 
657 1 0.767655 0.226614 0.500000 
658 1 0.787635 0.226872 0.500000 
659 1 0.807619 0.227113 0.500000 
660 1 0.827606 0.227333 0.500000 
661 1 0.847595 0.227539 0.500000 
662 1 0.867587 0.227731 0.500000 
663 1 0.887583 0.227910 0.500000 
664 1 0.907581 0.228082 0.500000 
665 1 0.927581 0.228239 0.500000 
666 1 0.947580 0.228392 0.500000 
667 1 0.967605 0.228489 0.500000 
668 1 0.987634 0.228577 0.500000 
669 1 0.007189 0.234587 0.500000 
670 1 0.027214 0.235215 0.500000 
671 1 0.047243 0.235854 0.500000 
672 1 0.067275 0.236508 0.500000 
673 1 0.087345 0.237238 0.500000 
674 1 0.107415 0.237980 0.500000 
675 1 0.127483 0.238737 0.500000 
676 1 0.147553 0.239510 0.500000 
677 1 0.167626 0.240299 0.500000 
678 1 0.187697 0.241106 0.500000 
679 1 0.207766 0.241928 0.500000 
680 1 0.227830 0.242771 0.500000 
681 1 0.247890 0.243632 0.500000 
682 1 0.267943 0.244509 0.500000 
683 1 0.287984 0.245402 0.500000 
684 1 0.308015 0.246308 0.500000 
685 1 0.328033 0.247228 0.500000 
686 1 0.348038 0.248153 0.500000 
687 1 0.378411 0.232554 0.500000 
688 1 0.368030 0.249075 0.500000 
689 1 0.398374 0.233439 0.500000 
690 1 0.388004 0.249992 0.500000 
691 1 0.418325 0.234307 0.500000 
692 1 0.407964 0.250896 0.500000 
693 1 0.438261 0.235154 0.500000 
694 1 0.427908 0.251781 0.500000 
695 1 0.458189 0.235969 0.500000 
696 1 0.478112 0.236749 0.500000 
697 1 0.498033 0.237490 0.500000 
698 1 0.517955 0.238185 0.500000 
699 1 0.537876 0.238836 0.500000 
700 1 0.557803 0.239442 0.500000 
701 1 0.577735 0.240007 0.500000 
702 1 0.597672 0.240529 0.500000 
703 1 0.617615 0.241013 0.500000 
704 1 0.637564 0.241461 0.500000 
705 1 0.657519 0.241874 0.500000 
706 1 0.677480 0.242255 0.500000 
707 1 0.697448 0.242611 0.500000 
708 1 0.717419 0.242941 0.500000 
709 1 0.737395 0.243246 0.500000 
710 1 0.757377 0.243530 0.500000 
711 1 0.777363 0.243791 0.500000 
712 1 0.797351 0.244033 0.500000 
713 1 0.817345 0.244258 0.500000 
714 1 0.837342 0.244466 0.500000 
715 1 0.857341 0.244660 0.500000 
716 1 0.877344 0.244839 0.500000 
717 1 0.897349 0.245009 0.500000 
718 1 0.917358 0.245168 0.500000 
719 1 0.937368 0.245318 0.500000 
720 1 0.957383 0.245436 0.500000 
721 1 0.977417 0.245522 0.500000 
722 1 0.997455 0.245600 0.500000 
723 1 0.016737 0.251640 0.500000 
724 1 0.006256 0.268068 0.500000 
725 1 0.036760 0.252274 0.500000 
726 1 0.026272 0.268696 0.500000 
727 1 0.056787 0.252921 0.500000 
728 1 0.046292 0.269335 0.500000 
729 1 0.076842 0.253615 0.500000 
730 1 0.066319 0.269991 0.500000 
731 1 0.096906 0.254354 0.500000 
732 1 0.086383 0.270724 0.500000 
733 1 0.116973 0.255107 0.500000 
734 1 0.137043 0.255876 0.500000 
735 1 0.157117 0.256664 0.500000 
736 1 0.177194 0.257472 0.500000 
737 1 0.197268 0.258297 0.500000 
738 1 0.217339 0.259144 0.500000 
739 1 0.237407 0.260012 0.500000 
740 1 0.257472 0.260898 0.500000 
741 1 0.277528 0.261806 0.500000 
742 1 0.297572 0.262727 0.500000 
743 1 0.317602 0.263665 0.500000 
744 1 0.337620 0.264613 0.500000 
745 1 0.357624 0.265566 0.500000 
746 1 0.377611 0.266517 0.500000 
747 1 0.397582 0.267456 0.500000 
748 1 0.417537 0.268382 0.500000 
749 1 0.437480 0.269276 0.500000 
750 1 0.447843 0.252632 0.500000 
751 1 0.457409 0.270133 0.500000 
752 1 0.467769 0.253450 0.500000 
753 1 0.477335 0.270944 0.500000 
754 1 0.487691 0.254222 0.500000 
755 1 0.507614 0.254948 0.500000 
756 1 0.527537 0.255627 0.500000 
757 1 0.547465 0.256256 0.500000 
758 1 0.567398 0.256840 0.500000 
759 1 0.587339 0.257379 0.500000 
760 1 0.607287 0.257876 0.500000 
761 1 0.627240 0.258337 0.500000 
762 1 0.647202 0.258761 0.500000 
763 1 0.667169 0.259151 0.500000 
764 1 0.687142 0.259512 0.500000 
765 1 0.707121 0.259849 0.500000 
766 1 0.727105 0.260159 0.500000 
767 1 0.747093 0.260446 0.500000 
768 1 0.767085 0.260712 0.500000 
769 1 0.787082 0.260957 0.500000 
770 1 0.807083 0.261183 0.500000 
771 1 0.827086 0.261394 0.500000 
772 1 0.847093 0.261589 0.500000 
773 1 0.867102 0.261770 0.500000 
774 1 0.887112 0.261940 0.500000 
775 1 0.907127 0.262096 0.500000 
776 1 0.927143 0.262244 0.500000 
777 1 0.947159 0.262387 0.500000 
778 1 0.967200 0.262468 0.500000 
779 1 0.987245 0.262544 0.500000 
780 1 0.015779 0.285121 0.500000 
781 1 0.035792 0.285753 0.500000 
782 1 0.055810 0.286400 0.500000 
783 1 0.075858 0.287094 0.500000 
784 1 0.095915 0.287837 0.500000 
785 1 0.106449 0.271473 0.500000 
786 1 0.115978 0.288594 0.500000 
787 1 0.126517 0.272237 0.500000 
788 1 0.136048 0.289369 0.500000 
789 1 0.146591 0.273020 0.500000 
790 1 0.156124 0.290168 0.500000 
791 1 0.166669 0.273824 0.500000 
792 1 0.176203 0.290990 0.500000 
793 1 0.186747 0.274650 0.500000 
794 1 0.206824 0.275498 0.500000 
795 1 0.226900 0.276370 0.500000 
796 1 0.246974 0.277263 0.500000 
797 1 0.267041 0.278181 0.500000 
798 1 0.287099 0.279118 0.500000 
799 1 0.307147 0.280073 0.500000 
800 1 0.327179 0.281043 0.500000 
801 1 0.347195 0.282023 0.500000 
802 1 0.367198 0.283009 0.500000 
803 1 0.387183 0.283988 0.500000 
804 1 0.407148 0.284954 0.500000 
805 1 0.427099 0.285893 0.500000 
806 1 0.447035 0.286798 0.500000 
807 1 0.466964 0.287651 0.500000 
808 1 0.497258 0.271704 0.500000 
809 1 0.486891 0.288452 0.500000 
810 1 0.506819 0.289192 0.500000 
811 1 0.517183 0.272413 0.500000 
812 1 0.526750 0.289877 0.500000 
813 1 0.537113 0.273068 0.500000 
814 1 0.546687 0.290504 0.500000 
815 1 0.557050 0.273672 0.500000 
816 1 0.576995 0.274229 0.500000 
817 1 0.596947 0.274741 0.500000 
818 1 0.616905 0.275214 0.500000 
819 1 0.636873 0.275647 0.500000 
820 1 0.656847 0.276048 0.500000 
821 1 0.676828 0.276417 0.500000 
822 1 0.696813 0.276757 0.500000 
823 1 0.716806 0.277074 0.500000 
824 1 0.736804 0.277365 0.500000 
825 1 0.756804 0.277637 0.500000 
826 1 0.776808 0.277882 0.500000 
827 1 0.796817 0.278111 0.500000 
828 1 0.816828 0.278323 0.500000 
829 1 0.836842 0.278519 0.500000 
830 1 0.856859 0.278702 0.500000 
831 1 0.876877 0.278872 0.500000 
832 1 0.896898 0.279025 0.500000 
833 1 0.916922 0.279172 0.500000 
834 1 0.936949 0.279311 0.500000 
835 1 0.956982 0.279417 0.500000 
836 1 0.977036 0.279488 0.500000 
837 1 0.997089 0.279555 0.500000 
838 1 0.005284 0.301547 0.500000 
839 1 0.025288 0.302175 0.500000 
840 1 0.045299 0.302815 0.500000 
841 1 0.065313 0.303468 0.500000 
842 1 0.085368 0.304201 0.500000 
843 1 0.105427 0.304951 0.500000 
844 1 0.125491 0.305715 0.500000 
845 1 0.145561 0.306505 0.500000 
846 1 0.165638 0.307321 0.500000 
847 1 0.196284 0.291836 0.500000 
848 1 0.185718 0.308161 0.500000 
849 1 0.216365 0.292707 0.500000 
850 1 0.205803 0.309029 0.500000 
851 1 0.236447 0.293602 0.500000 
852 1 0.225890 0.309924 0.500000 
853 1 0.256524 0.294529 0.500000 
854 1 0.245975 0.310851 0.500000 
855 1 0.276595 0.295478 0.500000 
856 1 0.266058 0.311809 0.500000 
857 1 0.296658 0.296449 0.500000 
858 1 0.316709 0.297442 0.500000 
859 1 0.336743 0.298449 0.500000 
860 1 0.356759 0.299465 0.500000 
861 1 0.376758 0.300483 0.500000 
862 1 0.396736 0.301494 0.500000 
863 1 0.416697 0.302481 0.500000 
864 1 0.436642 0.303437 0.500000 
865 1 0.456574 0.304341 0.500000 
866 1 0.476502 0.305186 0.500000 
867 1 0.496433 0.305966 0.500000 
868 1 0.516366 0.306681 0.500000 
869 1 0.536308 0.307335 0.500000 
870 1 0.566636 0.291078 0.500000 
871 1 0.556260 0.307929 0.500000 
872 1 0.586594 0.291608 0.500000 
873 1 0.576222 0.308475 0.500000 
874 1 0.606558 0.292094 0.500000 
875 1 0.596195 0.308974 0.500000 
876 1 0.626533 0.292537 0.500000 
877 1 0.616179 0.309429 0.500000 
878 1 0.646514 0.292946 0.500000 
879 1 0.636170 0.309847 0.500000 
880 1 0.666503 0.293322 0.500000 
881 1 0.686498 0.293671 0.500000 