ITEM: TIMESTEP
1000
ITEM: NUMBER OF ATOMS
2850
ITEM: BOX BOUNDS ss ss pp
-28.0536 28.3253 
-28.9988 28.9984 
-0.5 0.5 
ITEM: ATOMS id type xs ys zs
1 1 0.012661 0.000000 0.500000 
2 1 0.032688 0.000597 0.500000 
3 1 0.052715 0.001202 0.500000 
4 1 0.072742 0.001814 0.500000 
5 1 0.092767 0.002433 0.500000 
6 1 0.112794 0.003060 0.500000 
7 1 0.132817 0.003697 0.500000 
8 1 0.152841 0.004338 0.500000 
9 1 0.172861 0.004988 0.500000 
10 1 0.192879 0.005643 0.500000 
11 1 0.212895 0.006305 0.500000 
12 1 0.232906 0.006973 0.500000 
13 1 0.252912 0.007645 0.500000 
14 1 0.272914 0.008319 0.500000 
15 1 0.292911 0.008997 0.500000 
16 1 0.312901 0.009676 0.500000 
17 1 0.332885 0.010356 0.500000 
18 1 0.352861 0.011033 0.500000 
19 1 0.372830 0.011707 0.500000 
20 1 0.392791 0.012376 0.500000 
21 1 0.022340 0.017073 0.500000 
22 1 0.042369 0.017677 0.500000 
23 1 0.062397 0.018289 0.500000 
24 1 0.082426 0.018911 0.500000 
25 1 0.102455 0.019539 0.500000 
26 1 0.122484 0.020177 0.500000 
27 1 0.142511 0.020822 0.500000 
28 1 0.162536 0.021475 0.500000 
29 1 0.182559 0.022136 0.500000 
30 1 0.202579 0.022803 0.500000 
31 1 0.222596 0.023475 0.500000 
32 1 0.242610 0.024155 0.500000 
33 1 0.262618 0.024839 0.500000 
34 1 0.282622 0.025527 0.500000 
35 1 0.302619 0.026217 0.500000 
36 1 0.322610 0.026908 0.500000 
37 1 0.342593 0.027600 0.500000 
38 1 0.362570 0.028289 0.500000 
39 1 0.382537 0.028974 0.500000 
40 1 0.402497 0.029655 0.500000 
41 1 0.412744 0.013039 0.500000 
42 1 0.422448 0.030326 0.500000 
43 1 0.432688 0.013694 0.500000 
44 1 0.442390 0.030989 0.500000 
45 1 0.452624 0.014337 0.500000 
46 1 0.462324 0.031639 0.500000 
47 1 0.472553 0.014968 0.500000 
48 1 0.482250 0.032276 0.500000 
49 1 0.492474 0.015584 0.500000 
50 1 0.512388 0.016184 0.500000 
51 1 0.532295 0.016766 0.500000 
52 1 0.552198 0.017330 0.500000 
53 1 0.572095 0.017873 0.500000 
54 1 0.591989 0.018396 0.500000 
55 1 0.611880 0.018896 0.500000 
56 1 0.631769 0.019373 0.500000 
57 1 0.651657 0.019829 0.500000 
58 1 0.671546 0.020261 0.500000 
59 1 0.691436 0.020670 0.500000 
60 1 0.711328 0.021058 0.500000 
61 1 0.731222 0.021423 0.500000 
62 1 0.751120 0.021768 0.500000 
63 1 0.771021 0.022094 0.500000 
64 1 0.790927 0.022399 0.500000 
65 1 0.810837 0.022687 0.500000 
66 1 0.830751 0.022958 0.500000 
67 1 0.850671 0.023211 0.500000 
68 1 0.870595 0.023449 0.500000 
69 1 0.890525 0.023674 0.500000 
70 1 0.910459 0.023884 0.500000 
71 1 0.930398 0.024080 0.500000 
72 1 0.950341 0.024267 0.500000 
73 1 0.970290 0.024443 0.500000 
74 1 0.990243 0.024606 0.500000 
75 1 0.011983 0.033545 0.500000 
76 1 0.032014 0.034148 0.500000 
77 1 0.021650 0.050615 0.500000 
78 1 0.052044 0.034760 0.500000 
79 1 0.041680 0.051227 0.500000 
80 1 0.072075 0.035381 0.500000 
81 1 0.061715 0.051847 0.500000 
82 1 0.092107 0.036012 0.500000 
83 1 0.081760 0.052485 0.500000 
84 1 0.112138 0.036650 0.500000 
85 1 0.132168 0.037297 0.500000 
86 1 0.152197 0.037952 0.500000 
87 1 0.172226 0.038617 0.500000 
88 1 0.192251 0.039288 0.500000 
89 1 0.212274 0.039967 0.500000 
90 1 0.232293 0.040654 0.500000 
91 1 0.252309 0.041345 0.500000 
92 1 0.272318 0.042042 0.500000 
93 1 0.292324 0.042743 0.500000 
94 1 0.312323 0.043447 0.500000 
95 1 0.332314 0.044150 0.500000 
96 1 0.352297 0.044856 0.500000 
97 1 0.372273 0.045557 0.500000 
98 1 0.392240 0.046254 0.500000 
99 1 0.412198 0.046944 0.500000 
100 1 0.432147 0.047626 0.500000 
101 1 0.452087 0.048297 0.500000 
102 1 0.472018 0.048954 0.500000 
103 1 0.502167 0.032896 0.500000 
104 1 0.491940 0.049595 0.500000 
105 1 0.522078 0.033498 0.500000 
106 1 0.511855 0.050220 0.500000 
107 1 0.541983 0.034081 0.500000 
108 1 0.531762 0.050823 0.500000 
109 1 0.561882 0.034643 0.500000 
110 1 0.551663 0.051406 0.500000 
111 1 0.581777 0.035184 0.500000 
112 1 0.571560 0.051966 0.500000 
113 1 0.601668 0.035702 0.500000 
114 1 0.591452 0.052503 0.500000 
115 1 0.621558 0.036195 0.500000 
116 1 0.641446 0.036666 0.500000 
117 1 0.661334 0.037110 0.500000 
118 1 0.681223 0.037533 0.500000 
119 1 0.701115 0.037931 0.500000 
120 1 0.721007 0.038307 0.500000 
121 1 0.740905 0.038660 0.500000 
122 1 0.760806 0.038993 0.500000 
123 1 0.780711 0.039305 0.500000 
124 1 0.800620 0.039597 0.500000 
125 1 0.820536 0.039873 0.500000 
126 1 0.840456 0.040130 0.500000 
127 1 0.860382 0.040369 0.500000 
128 1 0.880312 0.040595 0.500000 
129 1 0.900248 0.040807 0.500000 
130 1 0.920188 0.041005 0.500000 
131 1 0.940134 0.041192 0.500000 
132 1 0.960084 0.041368 0.500000 
133 1 0.980040 0.041531 0.500000 
134 1 1.000000 0.041686 0.500000 
135 1 0.011275 0.067077 0.500000 
136 1 0.031308 0.067688 0.500000 
137 1 0.051342 0.068307 0.500000 
138 1 0.071376 0.068936 0.500000 
139 1 0.091424 0.069615 0.500000 
140 1 0.101818 0.053165 0.500000 
141 1 0.111497 0.070308 0.500000 
142 1 0.121873 0.053822 0.500000 
143 1 0.131567 0.070990 0.500000 
144 1 0.141892 0.054472 0.500000 
145 1 0.151594 0.071676 0.500000 
146 1 0.161892 0.055151 0.500000 
147 1 0.171604 0.072360 0.500000 
148 1 0.181914 0.055839 0.500000 
149 1 0.201924 0.056531 0.500000 
150 1 0.221941 0.057173 0.500000 
151 1 0.241952 0.057860 0.500000 
152 1 0.261957 0.058591 0.500000 
153 1 0.281950 0.059355 0.500000 
154 1 0.301961 0.060069 0.500000 
155 1 0.321961 0.060793 0.500000 
156 1 0.341942 0.061533 0.500000 
157 1 0.361916 0.062254 0.500000 
158 1 0.381880 0.062944 0.500000 
159 1 0.401828 0.063632 0.500000 
160 1 0.421772 0.064329 0.500000 
161 1 0.441709 0.065025 0.500000 
162 1 0.461648 0.065698 0.500000 
163 1 0.481577 0.066363 0.500000 
164 1 0.501485 0.066998 0.500000 
165 1 0.521406 0.067604 0.500000 
166 1 0.541316 0.068206 0.500000 
167 1 0.561205 0.068768 0.500000 
168 1 0.581095 0.069316 0.500000 
169 1 0.600993 0.069829 0.500000 
170 1 0.611341 0.053013 0.500000 
171 1 0.620898 0.070305 0.500000 
172 1 0.631230 0.053499 0.500000 
173 1 0.640808 0.070774 0.500000 
174 1 0.651117 0.053960 0.500000 
175 1 0.671006 0.054396 0.500000 
176 1 0.660724 0.071239 0.500000 
177 1 0.690897 0.054806 0.500000 
178 1 0.680626 0.071705 0.500000 
179 1 0.710789 0.055192 0.500000 
180 1 0.700520 0.072123 0.500000 
181 1 0.730685 0.055554 0.500000 
182 1 0.720406 0.072504 0.500000 
183 1 0.750586 0.055894 0.500000 
184 1 0.770490 0.056213 0.500000 
185 1 0.790400 0.056511 0.500000 
186 1 0.810316 0.056789 0.500000 
187 1 0.830238 0.057049 0.500000 
188 1 0.850164 0.057294 0.500000 
189 1 0.870095 0.057522 0.500000 
190 1 0.890032 0.057734 0.500000 
191 1 0.909975 0.057934 0.500000 
192 1 0.929922 0.058120 0.500000 
193 1 0.949875 0.058294 0.500000 
194 1 0.969833 0.058458 0.500000 
195 1 0.989796 0.058613 0.500000 
196 1 0.020924 0.084144 0.500000 
197 1 0.040959 0.084763 0.500000 
198 1 0.060994 0.085390 0.500000 
199 1 0.081027 0.086038 0.500000 
200 1 0.101088 0.086754 0.500000 
201 1 0.121163 0.087459 0.500000 
202 1 0.141230 0.088165 0.500000 
203 1 0.161278 0.088861 0.500000 
204 1 0.191597 0.073077 0.500000 
205 1 0.181297 0.089580 0.500000 
206 1 0.211609 0.073716 0.500000 
207 1 0.201329 0.090244 0.500000 
208 1 0.221324 0.090930 0.500000 
209 1 0.231606 0.074383 0.500000 
210 1 0.241283 0.091672 0.500000 
211 1 0.251604 0.075132 0.500000 
212 1 0.261230 0.092494 0.500000 
213 1 0.271588 0.075951 0.500000 
214 1 0.291587 0.076685 0.500000 
215 1 0.311578 0.077393 0.500000 
216 1 0.331551 0.078147 0.500000 
217 1 0.351532 0.078902 0.500000 
218 1 0.371533 0.079627 0.500000 
219 1 0.391491 0.080340 0.500000 
220 1 0.411414 0.081051 0.500000 
221 1 0.431358 0.081768 0.500000 
222 1 0.451311 0.082458 0.500000 
223 1 0.471232 0.083128 0.500000 
224 1 0.491139 0.083792 0.500000 
225 1 0.511052 0.084400 0.500000 
226 1 0.530957 0.085016 0.500000 
227 1 0.550847 0.085614 0.500000 
228 1 0.570730 0.086154 0.500000 
229 1 0.590626 0.086675 0.500000 
230 1 0.610523 0.087167 0.500000 
231 1 0.630421 0.087642 0.500000 
232 1 0.650340 0.088096 0.500000 
233 1 0.670260 0.088565 0.500000 
234 1 0.690185 0.089003 0.500000 
235 1 0.710099 0.089410 0.500000 
236 1 0.729987 0.089737 0.500000 
237 1 0.740280 0.072790 0.500000 
238 1 0.749844 0.089985 0.500000 
239 1 0.760161 0.073065 0.500000 
240 1 0.769737 0.090251 0.500000 
241 1 0.780066 0.073358 0.500000 
242 1 0.789695 0.090530 0.500000 
243 1 0.799989 0.073628 0.500000 
244 1 0.809663 0.090775 0.500000 
245 1 0.819909 0.073905 0.500000 
246 1 0.829610 0.091027 0.500000 
247 1 0.839813 0.074154 0.500000 
248 1 0.849509 0.091276 0.500000 
249 1 0.859730 0.074402 0.500000 
250 1 0.869424 0.091508 0.500000 
251 1 0.879692 0.074607 0.500000 
252 1 0.889368 0.091736 0.500000 
253 1 0.899681 0.074846 0.500000 
254 1 0.909372 0.092013 0.500000 
255 1 0.919649 0.075089 0.500000 
256 1 0.929381 0.092242 0.500000 
257 1 0.939606 0.075267 0.500000 
258 1 0.949407 0.092323 0.500000 
259 1 0.959621 0.075390 0.500000 
260 1 0.979588 0.075542 0.500000 
261 1 0.999557 0.075685 0.500000 
262 1 0.010532 0.100598 0.500000 
263 1 0.030566 0.101214 0.500000 
264 1 0.050602 0.101839 0.500000 
265 1 0.070640 0.102476 0.500000 
266 1 0.090661 0.103152 0.500000 
267 1 0.110731 0.103880 0.500000 
268 1 0.130811 0.104607 0.500000 
269 1 0.150894 0.105323 0.500000 
270 1 0.170956 0.106046 0.500000 
271 1 0.191009 0.106736 0.500000 
272 1 0.211014 0.107458 0.500000 
273 1 0.230973 0.108210 0.500000 
274 1 0.250916 0.109001 0.500000 
275 1 0.270893 0.109794 0.500000 
276 1 0.281221 0.093282 0.500000 
277 1 0.290889 0.110583 0.500000 
278 1 0.301211 0.094002 0.500000 
279 1 0.310865 0.111352 0.500000 
280 1 0.321182 0.094742 0.500000 
281 1 0.330844 0.112110 0.500000 
282 1 0.341156 0.095517 0.500000 
283 1 0.361148 0.096252 0.500000 
284 1 0.381128 0.097001 0.500000 
285 1 0.401075 0.097755 0.500000 
286 1 0.421015 0.098474 0.500000 
287 1 0.440978 0.099193 0.500000 
288 1 0.460913 0.099910 0.500000 
289 1 0.480811 0.100587 0.500000 
290 1 0.500717 0.101223 0.500000 
291 1 0.520613 0.101854 0.500000 
292 1 0.540499 0.102468 0.500000 
293 1 0.560388 0.103033 0.500000 
294 1 0.580285 0.103555 0.500000 
295 1 0.600200 0.104068 0.500000 
296 1 0.620109 0.104559 0.500000 
297 1 0.640015 0.104997 0.500000 
298 1 0.659915 0.105444 0.500000 
299 1 0.679825 0.105868 0.500000 
300 1 0.699743 0.106267 0.500000 
301 1 0.719661 0.106646 0.500000 
302 1 0.739555 0.106964 0.500000 
303 1 0.759431 0.107218 0.500000 
304 1 0.779363 0.107458 0.500000 
305 1 0.799363 0.107707 0.500000 
306 1 0.819324 0.107937 0.500000 
307 1 0.839268 0.108194 0.500000 
308 1 0.859194 0.108415 0.500000 
309 1 0.879158 0.108653 0.500000 
310 1 0.899152 0.108873 0.500000 
311 1 0.919194 0.109136 0.500000 
312 1 0.939240 0.109261 0.500000 
313 1 0.969375 0.092475 0.500000 
314 1 0.959160 0.109410 0.500000 
315 1 0.989349 0.092617 0.500000 
316 1 0.979136 0.109550 0.500000 
317 1 0.999117 0.109681 0.500000 
318 1 0.020165 0.117663 0.500000 
319 1 0.040201 0.118287 0.500000 
320 1 0.060239 0.118920 0.500000 
321 1 0.080275 0.119581 0.500000 
322 1 0.100296 0.120263 0.500000 
323 1 0.120364 0.120987 0.500000 
324 1 0.140491 0.121725 0.500000 
325 1 0.160607 0.122486 0.500000 
326 1 0.180674 0.123214 0.500000 
327 1 0.200682 0.123952 0.500000 
328 1 0.220667 0.124729 0.500000 
329 1 0.240643 0.125517 0.500000 
330 1 0.260615 0.126290 0.500000 
331 1 0.280603 0.127096 0.500000 
332 1 0.300601 0.127925 0.500000 
333 1 0.320591 0.128706 0.500000 
334 1 0.340560 0.129462 0.500000 
335 1 0.350831 0.112874 0.500000 
336 1 0.360515 0.130252 0.500000 
337 1 0.370790 0.113633 0.500000 
338 1 0.380457 0.131037 0.500000 
339 1 0.390740 0.114393 0.500000 
340 1 0.400413 0.131806 0.500000 
341 1 0.410703 0.115157 0.500000 
342 1 0.420389 0.132585 0.500000 
343 1 0.430666 0.115896 0.500000 
344 1 0.450625 0.116644 0.500000 
345 1 0.470559 0.117385 0.500000 
346 1 0.490451 0.118059 0.500000 
347 1 0.510322 0.118710 0.500000 
348 1 0.530206 0.119325 0.500000 
349 1 0.550109 0.119912 0.500000 
350 1 0.570022 0.120461 0.500000 
351 1 0.589936 0.120963 0.500000 
352 1 0.609856 0.121461 0.500000 
353 1 0.629783 0.121916 0.500000 
354 1 0.649679 0.122343 0.500000 
355 1 0.669570 0.122757 0.500000 
356 1 0.689460 0.123156 0.500000 
357 1 0.709348 0.123536 0.500000 
358 1 0.729240 0.123904 0.500000 
359 1 0.749136 0.124216 0.500000 
360 1 0.769044 0.124443 0.500000 
361 1 0.788993 0.124630 0.500000 
362 1 0.808956 0.124901 0.500000 
363 1 0.828926 0.125116 0.500000 
364 1 0.848926 0.125373 0.500000 
365 1 0.868935 0.125550 0.500000 
366 1 0.888961 0.125760 0.500000 
367 1 0.908964 0.125974 0.500000 
368 1 0.928992 0.126152 0.500000 
369 1 0.948940 0.126349 0.500000 
370 1 0.968919 0.126487 0.500000 
371 1 0.988905 0.126616 0.500000 
372 1 0.009754 0.134110 0.500000 
373 1 0.029790 0.134729 0.500000 
374 1 0.019367 0.151171 0.500000 
375 1 0.049825 0.135360 0.500000 
376 1 0.039403 0.151799 0.500000 
377 1 0.069865 0.136003 0.500000 
378 1 0.089885 0.136692 0.500000 
379 1 0.109935 0.137362 0.500000 
380 1 0.130045 0.138071 0.500000 
381 1 0.150183 0.138856 0.500000 
382 1 0.170292 0.139655 0.500000 
383 1 0.190330 0.140420 0.500000 
384 1 0.210342 0.141205 0.500000 
385 1 0.230354 0.142028 0.500000 
386 1 0.250347 0.142842 0.500000 
387 1 0.270321 0.143608 0.500000 
388 1 0.290322 0.144431 0.500000 
389 1 0.310347 0.145259 0.500000 
390 1 0.330335 0.146062 0.500000 
391 1 0.350274 0.146844 0.500000 
392 1 0.370220 0.147650 0.500000 
393 1 0.390181 0.148457 0.500000 
394 1 0.410133 0.149254 0.500000 
395 1 0.440352 0.133353 0.500000 
396 1 0.430080 0.150035 0.500000 
397 1 0.460296 0.134119 0.500000 
398 1 0.450022 0.150807 0.500000 
399 1 0.480213 0.134862 0.500000 
400 1 0.469950 0.151576 0.500000 
401 1 0.500092 0.135550 0.500000 
402 1 0.489853 0.152323 0.500000 
403 1 0.519968 0.136182 0.500000 
404 1 0.539854 0.136783 0.500000 
405 1 0.559770 0.137339 0.500000 
406 1 0.579701 0.137859 0.500000 
407 1 0.599613 0.138343 0.500000 
408 1 0.619528 0.138790 0.500000 
409 1 0.639445 0.139243 0.500000 
410 1 0.659344 0.139669 0.500000 
411 1 0.679222 0.140068 0.500000 
412 1 0.699093 0.140455 0.500000 
413 1 0.718980 0.140843 0.500000 
414 1 0.738898 0.141183 0.500000 
415 1 0.758801 0.141450 0.500000 
416 1 0.778695 0.141617 0.500000 
417 1 0.798625 0.141836 0.500000 
418 1 0.818627 0.142066 0.500000 
419 1 0.838634 0.142294 0.500000 
420 1 0.858666 0.142505 0.500000 
421 1 0.878686 0.142663 0.500000 
422 1 0.898699 0.142842 0.500000 
423 1 0.918713 0.143010 0.500000 
424 1 0.938707 0.143255 0.500000 
425 1 0.958701 0.143428 0.500000 
426 1 0.978689 0.143555 0.500000 
427 1 0.998682 0.143674 0.500000 
428 1 0.008938 0.167610 0.500000 
429 1 0.028972 0.168234 0.500000 
430 1 0.049008 0.168868 0.500000 
431 1 0.059442 0.152437 0.500000 
432 1 0.069047 0.169517 0.500000 
433 1 0.079499 0.153120 0.500000 
434 1 0.089166 0.170207 0.500000 
435 1 0.099584 0.153792 0.500000 
436 1 0.109246 0.170926 0.500000 
437 1 0.119660 0.154483 0.500000 
438 1 0.139747 0.155220 0.500000 
439 1 0.129327 0.171633 0.500000 
440 1 0.159841 0.156027 0.500000 
441 1 0.179932 0.156846 0.500000 
442 1 0.199967 0.157661 0.500000 
443 1 0.219973 0.158497 0.500000 
444 1 0.240000 0.159338 0.500000 
445 1 0.260041 0.160157 0.500000 
446 1 0.280041 0.160962 0.500000 
447 1 0.300027 0.161776 0.500000 
448 1 0.320028 0.162620 0.500000 
449 1 0.340030 0.163438 0.500000 
450 1 0.360000 0.164253 0.500000 
451 1 0.379946 0.165081 0.500000 
452 1 0.399899 0.165914 0.500000 
453 1 0.419849 0.166704 0.500000 
454 1 0.439788 0.167473 0.500000 
455 1 0.459708 0.168270 0.500000 
456 1 0.479608 0.169049 0.500000 
457 1 0.499501 0.169764 0.500000 
458 1 0.509736 0.152998 0.500000 
459 1 0.519394 0.170429 0.500000 
460 1 0.529616 0.153631 0.500000 
461 1 0.539326 0.171024 0.500000 
462 1 0.549528 0.154199 0.500000 
463 1 0.559250 0.171593 0.500000 
464 1 0.569449 0.154731 0.500000 
465 1 0.579153 0.172124 0.500000 
466 1 0.589364 0.155239 0.500000 
467 1 0.609265 0.155689 0.500000 
468 1 0.629165 0.156127 0.500000 
469 1 0.649088 0.156577 0.500000 
470 1 0.668993 0.156995 0.500000 
471 1 0.688859 0.157391 0.500000 
472 1 0.708746 0.157782 0.500000 
473 1 0.728697 0.158120 0.500000 
474 1 0.748657 0.158431 0.500000 
475 1 0.768579 0.158669 0.500000 
476 1 0.788447 0.158835 0.500000 
477 1 0.808388 0.159006 0.500000 
478 1 0.828369 0.159224 0.500000 
479 1 0.848374 0.159447 0.500000 
480 1 0.868394 0.159621 0.500000 
481 1 0.888419 0.159761 0.500000 
482 1 0.908427 0.159906 0.500000 
483 1 0.928441 0.160113 0.500000 
484 1 0.948477 0.160370 0.500000 
485 1 0.968470 0.160496 0.500000 
486 1 0.988467 0.160611 0.500000 
487 1 0.018532 0.184668 0.500000 
488 1 0.038566 0.185299 0.500000 
489 1 0.058602 0.185942 0.500000 
490 1 0.078707 0.186613 0.500000 
491 1 0.098786 0.187327 0.500000 
492 1 0.118881 0.188045 0.500000 
493 1 0.138942 0.188822 0.500000 
494 1 0.149398 0.172412 0.500000 
495 1 0.158999 0.189616 0.500000 
496 1 0.169486 0.173221 0.500000 
497 1 0.179069 0.190454 0.500000 
498 1 0.189560 0.174081 0.500000 
499 1 0.199160 0.191314 0.500000 
500 1 0.209611 0.174948 0.500000 
501 1 0.219266 0.192184 0.500000 
502 1 0.229660 0.175780 0.500000 
503 1 0.249707 0.176626 0.500000 
504 1 0.269735 0.177493 0.500000 
505 1 0.289739 0.178342 0.500000 
506 1 0.309737 0.179149 0.500000 
507 1 0.329743 0.179992 0.500000 
508 1 0.349723 0.180852 0.500000 
509 1 0.369697 0.181705 0.500000 
510 1 0.389667 0.182547 0.500000 
511 1 0.409631 0.183375 0.500000 
512 1 0.429574 0.184169 0.500000 
513 1 0.449465 0.184978 0.500000 
514 1 0.469353 0.185784 0.500000 
515 1 0.489251 0.186529 0.500000 
516 1 0.509157 0.187219 0.500000 
517 1 0.529093 0.187825 0.500000 
518 1 0.549037 0.188423 0.500000 
519 1 0.568966 0.188995 0.500000 
520 1 0.588869 0.189523 0.500000 
521 1 0.599054 0.172631 0.500000 
522 1 0.608778 0.190031 0.500000 
523 1 0.618942 0.173081 0.500000 
524 1 0.628661 0.190481 0.500000 
525 1 0.638831 0.173484 0.500000 
526 1 0.648510 0.190873 0.500000 
527 1 0.658734 0.173907 0.500000 
528 1 0.668402 0.191260 0.500000 
529 1 0.678632 0.174332 0.500000 
530 1 0.688315 0.191690 0.500000 
531 1 0.698526 0.174726 0.500000 
532 1 0.718458 0.175074 0.500000 
533 1 0.738413 0.175389 0.500000 
534 1 0.758396 0.175647 0.500000 
535 1 0.778353 0.175905 0.500000 
536 1 0.798248 0.176026 0.500000 
537 1 0.818138 0.176178 0.500000 
538 1 0.838080 0.176357 0.500000 
539 1 0.858126 0.176552 0.500000 
540 1 0.878174 0.176700 0.500000 
541 1 0.898192 0.176877 0.500000 
542 1 0.918180 0.177024 0.500000 
543 1 0.938197 0.177257 0.500000 
544 1 0.958249 0.177440 0.500000 
545 1 0.978251 0.177553 0.500000 
546 1 0.998258 0.177659 0.500000 
547 1 0.008083 0.201103 0.500000 
548 1 0.028113 0.201727 0.500000 
549 1 0.048147 0.202367 0.500000 
550 1 0.068185 0.203017 0.500000 
551 1 0.088298 0.203710 0.500000 
552 1 0.108416 0.204426 0.500000 
553 1 0.128489 0.205223 0.500000 
554 1 0.148546 0.206031 0.500000 
555 1 0.168603 0.206837 0.500000 
556 1 0.188683 0.207669 0.500000 
557 1 0.208766 0.208534 0.500000 
558 1 0.239328 0.193064 0.500000 
559 1 0.228855 0.209465 0.500000 
560 1 0.259354 0.193972 0.500000 
561 1 0.248929 0.210411 0.500000 
562 1 0.279393 0.194850 0.500000 
563 1 0.269013 0.211323 0.500000 
564 1 0.299456 0.195678 0.500000 
565 1 0.289071 0.212179 0.500000 
566 1 0.319450 0.196544 0.500000 
567 1 0.339420 0.197426 0.500000 
568 1 0.359415 0.198290 0.500000 
569 1 0.379412 0.199173 0.500000 
570 1 0.399390 0.200048 0.500000 
571 1 0.419328 0.200880 0.500000 
572 1 0.439224 0.201731 0.500000 
573 1 0.459102 0.202550 0.500000 
574 1 0.479001 0.203325 0.500000 
575 1 0.498897 0.204058 0.500000 
576 1 0.518812 0.204704 0.500000 
577 1 0.538743 0.205284 0.500000 
578 1 0.558696 0.205833 0.500000 
579 1 0.578633 0.206385 0.500000 
580 1 0.598550 0.206884 0.500000 
581 1 0.618459 0.207397 0.500000 
582 1 0.638344 0.207880 0.500000 
583 1 0.658210 0.208263 0.500000 
584 1 0.678097 0.208676 0.500000 
585 1 0.708218 0.192057 0.500000 
586 1 0.698002 0.209088 0.500000 
587 1 0.728135 0.192379 0.500000 
588 1 0.717894 0.209377 0.500000 
589 1 0.748075 0.192635 0.500000 
590 1 0.737828 0.209646 0.500000 
591 1 0.768046 0.192894 0.500000 
592 1 0.757785 0.209888 0.500000 
593 1 0.788031 0.193110 0.500000 
594 1 0.777751 0.210120 0.500000 
595 1 0.807961 0.193194 0.500000 
596 1 0.797723 0.210264 0.500000 
597 1 0.827886 0.193325 0.500000 
598 1 0.817678 0.210338 0.500000 
599 1 0.847862 0.193456 0.500000 
600 1 0.837681 0.210408 0.500000 
601 1 0.867879 0.193648 0.500000 
602 1 0.857686 0.210572 0.500000 
603 1 0.887901 0.193834 0.500000 
604 1 0.877690 0.210794 0.500000 
605 1 0.907924 0.194019 0.500000 
606 1 0.897712 0.210991 0.500000 
607 1 0.927935 0.194189 0.500000 
608 1 0.917742 0.211153 0.500000 
609 1 0.948021 0.194385 0.500000 
610 1 0.937767 0.211309 0.500000 
611 1 0.957807 0.211443 0.500000 
612 1 0.968031 0.194496 0.500000 
613 1 0.977825 0.211543 0.500000 
614 1 0.988043 0.194599 0.500000 
615 1 0.997847 0.211634 0.500000 
616 1 0.017654 0.218157 0.500000 
617 1 0.037684 0.218790 0.500000 
618 1 0.057718 0.219436 0.500000 
619 1 0.077811 0.220110 0.500000 
620 1 0.097913 0.220815 0.500000 
621 1 0.117984 0.221602 0.500000 
622 1 0.138058 0.222412 0.500000 
623 1 0.158146 0.223226 0.500000 
624 1 0.178215 0.224041 0.500000 
625 1 0.198286 0.224907 0.500000 
626 1 0.218374 0.225825 0.500000 
627 1 0.238468 0.226812 0.500000 
628 1 0.258552 0.227750 0.500000 
629 1 0.278603 0.228657 0.500000 
630 1 0.298629 0.229561 0.500000 
631 1 0.309081 0.213069 0.500000 
632 1 0.318641 0.230476 0.500000 
633 1 0.329079 0.213970 0.500000 
634 1 0.338659 0.231381 0.500000 
635 1 0.349084 0.214851 0.500000 
636 1 0.358655 0.232335 0.500000 
637 1 0.369079 0.215756 0.500000 
638 1 0.389060 0.216679 0.500000 
639 1 0.409011 0.217565 0.500000 
640 1 0.428927 0.218445 0.500000 
641 1 0.448828 0.219313 0.500000 
642 1 0.468725 0.220133 0.500000 
643 1 0.488600 0.220933 0.500000 
644 1 0.508501 0.221607 0.500000 
645 1 0.528424 0.222189 0.500000 
646 1 0.548347 0.222717 0.500000 
647 1 0.568278 0.223263 0.500000 
648 1 0.588235 0.223794 0.500000 
649 1 0.608149 0.224285 0.500000 
650 1 0.628056 0.224759 0.500000 
651 1 0.647968 0.225239 0.500000 
652 1 0.667858 0.225673 0.500000 
653 1 0.687770 0.226089 0.500000 
654 1 0.707691 0.226442 0.500000 
655 1 0.727607 0.226671 0.500000 
656 1 0.747559 0.226889 0.500000 
657 1 0.767506 0.227114 0.500000 
658 1 0.787471 0.227294 0.500000 
659 1 0.807448 0.227431 0.500000 
660 1 0.827457 0.227466 0.500000 
661 1 0.847468 0.227498 0.500000 
662 1 0.867497 0.227700 0.500000 
663 1 0.887533 0.227939 0.500000 
664 1 0.907549 0.228105 0.500000 
665 1 0.927565 0.228237 0.500000 
666 1 0.947580 0.228392 0.500000 
667 1 0.967605 0.228489 0.500000 
668 1 0.987634 0.228577 0.500000 
669 1 0.007189 0.234587 0.500000 
670 1 0.027214 0.235215 0.500000 
671 1 0.047243 0.235854 0.500000 
672 1 0.067275 0.236508 0.500000 
673 1 0.087400 0.237228 0.500000 
674 1 0.107479 0.237994 0.500000 
675 1 0.127550 0.238776 0.500000 
676 1 0.147659 0.239566 0.500000 
677 1 0.167753 0.240404 0.500000 
678 1 0.187822 0.241282 0.500000 
679 1 0.207890 0.242189 0.500000 
680 1 0.227958 0.243167 0.500000 
681 1 0.248043 0.244130 0.500000 
682 1 0.268118 0.245071 0.500000 
683 1 0.288154 0.246006 0.500000 
684 1 0.308178 0.246961 0.500000 
685 1 0.328187 0.247903 0.500000 
686 1 0.348166 0.248880 0.500000 
687 1 0.378632 0.233284 0.500000 
688 1 0.368154 0.249866 0.500000 
689 1 0.398593 0.234215 0.500000 
690 1 0.388128 0.250836 0.500000 
691 1 0.418516 0.235114 0.500000 
692 1 0.408084 0.251775 0.500000 
693 1 0.438448 0.236012 0.500000 
694 1 0.428010 0.252691 0.500000 
695 1 0.458350 0.236901 0.500000 
696 1 0.478225 0.237737 0.500000 
697 1 0.498143 0.238448 0.500000 
698 1 0.518064 0.239075 0.500000 
699 1 0.537963 0.239658 0.500000 
700 1 0.557859 0.240189 0.500000 
701 1 0.577812 0.240700 0.500000 
702 1 0.597791 0.241259 0.500000 
703 1 0.617717 0.241718 0.500000 
704 1 0.637608 0.242143 0.500000 
705 1 0.657534 0.242600 0.500000 
706 1 0.677467 0.242997 0.500000 
707 1 0.697423 0.243397 0.500000 
708 1 0.717382 0.243740 0.500000 
709 1 0.737343 0.243952 0.500000 
710 1 0.757293 0.244146 0.500000 
711 1 0.777256 0.244293 0.500000 
712 1 0.797220 0.244473 0.500000 
713 1 0.817241 0.244577 0.500000 
714 1 0.837229 0.244591 0.500000 
715 1 0.857182 0.244642 0.500000 
716 1 0.877205 0.244810 0.500000 
717 1 0.897268 0.245004 0.500000 
718 1 0.917314 0.245147 0.500000 
719 1 0.937340 0.245329 0.500000 
720 1 0.957383 0.245436 0.500000 
721 1 0.977417 0.245522 0.500000 
722 1 0.997455 0.245600 0.500000 
723 1 0.016737 0.251640 0.500000 
724 1 0.006256 0.268068 0.500000 
725 1 0.036760 0.252274 0.500000 
726 1 0.026272 0.268696 0.500000 
727 1 0.056787 0.252921 0.500000 
728 1 0.046292 0.269335 0.500000 
729 1 0.076843 0.253607 0.500000 
730 1 0.066319 0.269991 0.500000 
731 1 0.096928 0.254371 0.500000 
732 1 0.086388 0.270731 0.500000 
733 1 0.117023 0.255143 0.500000 
734 1 0.137135 0.255896 0.500000 
735 1 0.157238 0.256715 0.500000 
736 1 0.177319 0.257603 0.500000 
737 1 0.197411 0.258545 0.500000 
738 1 0.217476 0.259492 0.500000 
739 1 0.237561 0.260459 0.500000 
740 1 0.257648 0.261413 0.500000 
741 1 0.277709 0.262416 0.500000 
742 1 0.297732 0.263419 0.500000 
743 1 0.317751 0.264403 0.500000 
744 1 0.337760 0.265390 0.500000 
745 1 0.357738 0.266412 0.500000 
746 1 0.377725 0.267402 0.500000 
747 1 0.397701 0.268370 0.500000 
748 1 0.417611 0.269334 0.500000 
749 1 0.437489 0.270324 0.500000 
750 1 0.447894 0.253626 0.500000 
751 1 0.457390 0.271230 0.500000 
752 1 0.467805 0.254495 0.500000 
753 1 0.477323 0.272047 0.500000 
754 1 0.487756 0.255251 0.500000 
755 1 0.507694 0.255972 0.500000 
756 1 0.527607 0.256588 0.500000 
757 1 0.547514 0.257144 0.500000 
758 1 0.567424 0.257650 0.500000 
759 1 0.587364 0.258154 0.500000 
760 1 0.607355 0.258677 0.500000 
761 1 0.627286 0.259139 0.500000 
762 1 0.647200 0.259517 0.500000 
763 1 0.667098 0.259921 0.500000 
764 1 0.687015 0.260253 0.500000 
765 1 0.706998 0.260652 0.500000 
766 1 0.727025 0.260969 0.500000 
767 1 0.747019 0.261209 0.500000 
768 1 0.767018 0.261355 0.500000 
769 1 0.787008 0.261510 0.500000 
770 1 0.806994 0.261618 0.500000 
771 1 0.826999 0.261708 0.500000 
772 1 0.846980 0.261732 0.500000 
773 1 0.866979 0.261784 0.500000 
774 1 0.887022 0.261884 0.500000 
775 1 0.907053 0.262050 0.500000 
776 1 0.927104 0.262225 0.500000 
777 1 0.947159 0.262387 0.500000 
778 1 0.967200 0.262468 0.500000 
779 1 0.987245 0.262544 0.500000 
780 1 0.015779 0.285121 0.500000 
781 1 0.035792 0.285753 0.500000 
782 1 0.055810 0.286400 0.500000 
783 1 0.075872 0.287107 0.500000 
784 1 0.095921 0.287822 0.500000 
785 1 0.106462 0.271475 0.500000 
786 1 0.115994 0.288559 0.500000 
787 1 0.126571 0.272234 0.500000 
788 1 0.136107 0.289342 0.500000 
789 1 0.146678 0.273024 0.500000 
790 1 0.156214 0.290189 0.500000 
791 1 0.166761 0.273898 0.500000 
792 1 0.176330 0.291086 0.500000 
793 1 0.186860 0.274813 0.500000 
794 1 0.206992 0.275784 0.500000 
795 1 0.227089 0.276750 0.500000 
796 1 0.247167 0.277739 0.500000 
797 1 0.267201 0.278771 0.500000 
798 1 0.287235 0.279831 0.500000 
799 1 0.307273 0.280862 0.500000 
800 1 0.327301 0.281862 0.500000 
801 1 0.347313 0.282894 0.500000 
802 1 0.367324 0.283920 0.500000 
803 1 0.387294 0.284924 0.500000 
804 1 0.407231 0.285928 0.500000 
805 1 0.427102 0.286981 0.500000 
806 1 0.447008 0.287951 0.500000 
807 1 0.466917 0.288844 0.500000 
808 1 0.497254 0.272814 0.500000 
809 1 0.486806 0.289652 0.500000 
810 1 0.506748 0.290288 0.500000 
811 1 0.517223 0.273462 0.500000 
812 1 0.526674 0.290936 0.500000 
813 1 0.537149 0.274056 0.500000 
814 1 0.546606 0.291526 0.500000 
815 1 0.557060 0.274630 0.500000 
816 1 0.576984 0.275127 0.500000 
817 1 0.596928 0.275565 0.500000 
818 1 0.616899 0.276076 0.500000 
819 1 0.636874 0.276475 0.500000 
820 1 0.656792 0.276896 0.500000 
821 1 0.676696 0.277236 0.500000 
822 1 0.696597 0.277544 0.500000 
823 1 0.716592 0.277865 0.500000 
824 1 0.736596 0.278198 0.500000 
825 1 0.756593 0.278406 0.500000 
826 1 0.776631 0.278559 0.500000 
827 1 0.796699 0.278682 0.500000 
828 1 0.816733 0.278730 0.500000 
829 1 0.836763 0.278826 0.500000 
830 1 0.856753 0.278872 0.500000 
831 1 0.876802 0.278874 0.500000 
832 1 0.896839 0.278979 0.500000 
833 1 0.916866 0.279166 0.500000 
834 1 0.936901 0.279323 0.500000 
835 1 0.956982 0.279417 0.500000 
836 1 0.977036 0.279488 0.500000 
837 1 0.997089 0.279555 0.500000 
838 1 0.005284 0.301547 0.500000 
839 1 0.025288 0.302175 0.500000 
840 1 0.045299 0.302815 0.500000 
841 1 0.065313 0.303468 0.500000 
842 1 0.085362 0.304185 0.500000 
843 1 0.105440 0.304898 0.500000 
844 1 0.125550 0.305666 0.500000 
845 1 0.145637 0.306484 0.500000 
846 1 0.165721 0.307359 0.500000 
847 1 0.196449 0.292026 0.500000 
848 1 0.185824 0.308281 0.500000 
849 1 0.216552 0.293031 0.500000 
850 1 0.205919 0.309296 0.500000 
851 1 0.236629 0.294051 0.500000 
852 1 0.226017 0.310334 0.500000 
853 1 0.256662 0.295103 0.500000 
854 1 0.246097 0.311399 0.500000 
855 1 0.276694 0.296163 0.500000 
856 1 0.266154 0.312471 0.500000 
857 1 0.296749 0.297239 0.500000 
858 1 0.316816 0.298289 0.500000 
859 1 0.336854 0.299319 0.500000 
860 1 0.356857 0.300396 0.500000 
861 1 0.376871 0.301450 0.500000 
862 1 0.396835 0.302516 0.500000 
863 1 0.416730 0.303644 0.500000 
864 1 0.436650 0.304653 0.500000 
865 1 0.456559 0.305603 0.500000 
866 1 0.476463 0.306504 0.500000 
867 1 0.496366 0.307240 0.500000 
868 1 0.516242 0.307887 0.500000 
869 1 0.536179 0.308449 0.500000 
870 1 0.566558 0.292111 0.500000 
871 1 0.556143 0.309032 0.500000 
872 1 0.586483 0.292594 0.500000 
873 1 0.576115 0.309617 0.500000 
874 1 0.606405 0.292991 0.500000 
875 1 0.596022 0.310064 0.500000 
876 1 0.626393 0.293427 0.500000 
877 1 0.615908 0.310415 0.500000 
878 1 0.646367 0.293860 0.500000 
879 1 0.635874 0.310830 0.500000 
880 1 0.666346 0.294224 0.500000 
881 1 0.686307 0.294575 0.500000 