ITEM: TIMESTEP
300
ITEM: NUMBER OF ATOMS
2850
ITEM: BOX BOUNDS ss ss pp
-28.0536 28.3253 
-28.9988 28.9984 
-0.5 0.5 
ITEM: ATOMS id type xs ys zs
1 1 0.012661 0.000000 0.500000 
2 1 0.032688 0.000597 0.500000 
3 1 0.052715 0.001202 0.500000 
4 1 0.072742 0.001814 0.500000 
5 1 0.092767 0.002433 0.500000 
6 1 0.112794 0.003060 0.500000 
7 1 0.132817 0.003697 0.500000 
8 1 0.152841 0.004338 0.500000 
9 1 0.172861 0.004988 0.500000 
10 1 0.192879 0.005643 0.500000 
11 1 0.212895 0.006305 0.500000 
12 1 0.232906 0.006973 0.500000 
13 1 0.252912 0.007645 0.500000 
14 1 0.272914 0.008319 0.500000 
15 1 0.292911 0.008997 0.500000 
16 1 0.312901 0.009676 0.500000 
17 1 0.332885 0.010356 0.500000 
18 1 0.352861 0.011033 0.500000 
19 1 0.372830 0.011707 0.500000 
20 1 0.392791 0.012376 0.500000 
21 1 0.022340 0.017073 0.500000 
22 1 0.042369 0.017677 0.500000 
23 1 0.062397 0.018289 0.500000 
24 1 0.082426 0.018911 0.500000 
25 1 0.102455 0.019539 0.500000 
26 1 0.122484 0.020177 0.500000 
27 1 0.142511 0.020822 0.500000 
28 1 0.162536 0.021475 0.500000 
29 1 0.182559 0.022136 0.500000 
30 1 0.202579 0.022803 0.500000 
31 1 0.222596 0.023475 0.500000 
32 1 0.242610 0.024155 0.500000 
33 1 0.262618 0.024839 0.500000 
34 1 0.282622 0.025527 0.500000 
35 1 0.302619 0.026217 0.500000 
36 1 0.322610 0.026908 0.500000 
37 1 0.342593 0.027600 0.500000 
38 1 0.362570 0.028289 0.500000 
39 1 0.382537 0.028974 0.500000 
40 1 0.402497 0.029655 0.500000 
41 1 0.412744 0.013039 0.500000 
42 1 0.422448 0.030326 0.500000 
43 1 0.432688 0.013694 0.500000 
44 1 0.442390 0.030989 0.500000 
45 1 0.452624 0.014337 0.500000 
46 1 0.462324 0.031639 0.500000 
47 1 0.472553 0.014968 0.500000 
48 1 0.482250 0.032276 0.500000 
49 1 0.492474 0.015584 0.500000 
50 1 0.512388 0.016184 0.500000 
51 1 0.532295 0.016766 0.500000 
52 1 0.552198 0.017330 0.500000 
53 1 0.572095 0.017873 0.500000 
54 1 0.591989 0.018396 0.500000 
55 1 0.611880 0.018896 0.500000 
56 1 0.631769 0.019373 0.500000 
57 1 0.651657 0.019829 0.500000 
58 1 0.671546 0.020261 0.500000 
59 1 0.691436 0.020670 0.500000 
60 1 0.711328 0.021058 0.500000 
61 1 0.731222 0.021423 0.500000 
62 1 0.751120 0.021768 0.500000 
63 1 0.771021 0.022094 0.500000 
64 1 0.790927 0.022399 0.500000 
65 1 0.810837 0.022687 0.500000 
66 1 0.830751 0.022958 0.500000 
67 1 0.850671 0.023211 0.500000 
68 1 0.870595 0.023449 0.500000 
69 1 0.890525 0.023674 0.500000 
70 1 0.910459 0.023884 0.500000 
71 1 0.930398 0.024080 0.500000 
72 1 0.950341 0.024267 0.500000 
73 1 0.970290 0.024443 0.500000 
74 1 0.990243 0.024606 0.500000 
75 1 0.011983 0.033545 0.500000 
76 1 0.032014 0.034148 0.500000 
77 1 0.021650 0.050615 0.500000 
78 1 0.052044 0.034760 0.500000 
79 1 0.041680 0.051227 0.500000 
80 1 0.072075 0.035381 0.500000 
81 1 0.061715 0.051847 0.500000 
82 1 0.092107 0.036012 0.500000 
83 1 0.081741 0.052473 0.500000 
84 1 0.112138 0.036650 0.500000 
85 1 0.132168 0.037297 0.500000 
86 1 0.152197 0.037952 0.500000 
87 1 0.172226 0.038617 0.500000 
88 1 0.192251 0.039288 0.500000 
89 1 0.212274 0.039967 0.500000 
90 1 0.232293 0.040654 0.500000 
91 1 0.252309 0.041345 0.500000 
92 1 0.272318 0.042042 0.500000 
93 1 0.292324 0.042743 0.500000 
94 1 0.312323 0.043447 0.500000 
95 1 0.332314 0.044150 0.500000 
96 1 0.352297 0.044856 0.500000 
97 1 0.372273 0.045557 0.500000 
98 1 0.392240 0.046254 0.500000 
99 1 0.412198 0.046944 0.500000 
100 1 0.432147 0.047626 0.500000 
101 1 0.452087 0.048297 0.500000 
102 1 0.472018 0.048954 0.500000 
103 1 0.502167 0.032896 0.500000 
104 1 0.491940 0.049595 0.500000 
105 1 0.522078 0.033498 0.500000 
106 1 0.511855 0.050220 0.500000 
107 1 0.541983 0.034081 0.500000 
108 1 0.531762 0.050823 0.500000 
109 1 0.561882 0.034643 0.500000 
110 1 0.551663 0.051406 0.500000 
111 1 0.581777 0.035184 0.500000 
112 1 0.571560 0.051966 0.500000 
113 1 0.601668 0.035702 0.500000 
114 1 0.591452 0.052503 0.500000 
115 1 0.621558 0.036195 0.500000 
116 1 0.641446 0.036666 0.500000 
117 1 0.661334 0.037110 0.500000 
118 1 0.681223 0.037533 0.500000 
119 1 0.701115 0.037931 0.500000 
120 1 0.721007 0.038307 0.500000 
121 1 0.740905 0.038660 0.500000 
122 1 0.760806 0.038993 0.500000 
123 1 0.780711 0.039305 0.500000 
124 1 0.800620 0.039597 0.500000 
125 1 0.820536 0.039873 0.500000 
126 1 0.840456 0.040130 0.500000 
127 1 0.860382 0.040369 0.500000 
128 1 0.880312 0.040595 0.500000 
129 1 0.900248 0.040807 0.500000 
130 1 0.920188 0.041005 0.500000 
131 1 0.940134 0.041192 0.500000 
132 1 0.960084 0.041368 0.500000 
133 1 0.980040 0.041531 0.500000 
134 1 1.000000 0.041686 0.500000 
135 1 0.011275 0.067077 0.500000 
136 1 0.031308 0.067688 0.500000 
137 1 0.051342 0.068307 0.500000 
138 1 0.071376 0.068936 0.500000 
139 1 0.091400 0.069570 0.500000 
140 1 0.101771 0.053111 0.500000 
141 1 0.111428 0.070221 0.500000 
142 1 0.121800 0.053761 0.500000 
143 1 0.131458 0.070884 0.500000 
144 1 0.141832 0.054421 0.500000 
145 1 0.151490 0.071559 0.500000 
146 1 0.161863 0.055092 0.500000 
147 1 0.171523 0.072245 0.500000 
148 1 0.181895 0.055773 0.500000 
149 1 0.201926 0.056463 0.500000 
150 1 0.221953 0.057162 0.500000 
151 1 0.241976 0.057867 0.500000 
152 1 0.261994 0.058577 0.500000 
153 1 0.282006 0.059292 0.500000 
154 1 0.302012 0.060009 0.500000 
155 1 0.322012 0.060730 0.500000 
156 1 0.342002 0.061449 0.500000 
157 1 0.361985 0.062168 0.500000 
158 1 0.381958 0.062884 0.500000 
159 1 0.401922 0.063593 0.500000 
160 1 0.421875 0.064296 0.500000 
161 1 0.441819 0.064989 0.500000 
162 1 0.461752 0.065670 0.500000 
163 1 0.481675 0.066337 0.500000 
164 1 0.501589 0.066987 0.500000 
165 1 0.521493 0.067618 0.500000 
166 1 0.541390 0.068227 0.500000 
167 1 0.561281 0.068810 0.500000 
168 1 0.581170 0.069366 0.500000 
169 1 0.601057 0.069894 0.500000 
170 1 0.611341 0.053013 0.500000 
171 1 0.620945 0.070392 0.500000 
172 1 0.631230 0.053499 0.500000 
173 1 0.640836 0.070862 0.500000 
174 1 0.651117 0.053960 0.500000 
175 1 0.671006 0.054396 0.500000 
176 1 0.660728 0.071305 0.500000 
177 1 0.690897 0.054806 0.500000 
178 1 0.680624 0.071722 0.500000 
179 1 0.710789 0.055192 0.500000 
180 1 0.700522 0.072113 0.500000 
181 1 0.730685 0.055554 0.500000 
182 1 0.720424 0.072480 0.500000 
183 1 0.750586 0.055894 0.500000 
184 1 0.770490 0.056213 0.500000 
185 1 0.790400 0.056511 0.500000 
186 1 0.810316 0.056789 0.500000 
187 1 0.830238 0.057049 0.500000 
188 1 0.850164 0.057294 0.500000 
189 1 0.870095 0.057522 0.500000 
190 1 0.890032 0.057734 0.500000 
191 1 0.909975 0.057934 0.500000 
192 1 0.929922 0.058120 0.500000 
193 1 0.949875 0.058294 0.500000 
194 1 0.969833 0.058458 0.500000 
195 1 0.989796 0.058613 0.500000 
196 1 0.020924 0.084144 0.500000 
197 1 0.040959 0.084763 0.500000 
198 1 0.060994 0.085390 0.500000 
199 1 0.081024 0.086029 0.500000 
200 1 0.101050 0.086678 0.500000 
201 1 0.121079 0.087342 0.500000 
202 1 0.141112 0.088020 0.500000 
203 1 0.161145 0.088710 0.500000 
204 1 0.191557 0.072943 0.500000 
205 1 0.181179 0.089412 0.500000 
206 1 0.211589 0.073653 0.500000 
207 1 0.201214 0.090127 0.500000 
208 1 0.221247 0.090852 0.500000 
209 1 0.231618 0.074369 0.500000 
210 1 0.241277 0.091585 0.500000 
211 1 0.251643 0.075092 0.500000 
212 1 0.261303 0.092325 0.500000 
213 1 0.271663 0.075820 0.500000 
214 1 0.291677 0.076553 0.500000 
215 1 0.311683 0.077288 0.500000 
216 1 0.331684 0.078025 0.500000 
217 1 0.351675 0.078763 0.500000 
218 1 0.371657 0.079499 0.500000 
219 1 0.391628 0.080230 0.500000 
220 1 0.411589 0.080956 0.500000 
221 1 0.431538 0.081672 0.500000 
222 1 0.451478 0.082378 0.500000 
223 1 0.471405 0.083070 0.500000 
224 1 0.491321 0.083745 0.500000 
225 1 0.511227 0.084402 0.500000 
226 1 0.531124 0.085036 0.500000 
227 1 0.551014 0.085642 0.500000 
228 1 0.570901 0.086219 0.500000 
229 1 0.590786 0.086765 0.500000 
230 1 0.610672 0.087279 0.500000 
231 1 0.630561 0.087761 0.500000 
232 1 0.650454 0.088213 0.500000 
233 1 0.670352 0.088637 0.500000 
234 1 0.690254 0.089034 0.500000 
235 1 0.710160 0.089407 0.500000 
236 1 0.730070 0.089755 0.500000 
237 1 0.740329 0.072824 0.500000 
238 1 0.749986 0.090079 0.500000 
239 1 0.760240 0.073144 0.500000 
240 1 0.769906 0.090379 0.500000 
241 1 0.780156 0.073443 0.500000 
242 1 0.789833 0.090657 0.500000 
243 1 0.800078 0.073720 0.500000 
244 1 0.809767 0.090915 0.500000 
245 1 0.820007 0.073979 0.500000 
246 1 0.829705 0.091156 0.500000 
247 1 0.839940 0.074221 0.500000 
248 1 0.849649 0.091380 0.500000 
249 1 0.859877 0.074448 0.500000 
250 1 0.869595 0.091592 0.500000 
251 1 0.879819 0.074660 0.500000 
252 1 0.889545 0.091791 0.500000 
253 1 0.899764 0.074860 0.500000 
254 1 0.909496 0.091979 0.500000 
255 1 0.919713 0.075048 0.500000 
256 1 0.929450 0.092156 0.500000 
257 1 0.939665 0.075224 0.500000 
258 1 0.949407 0.092323 0.500000 
259 1 0.959621 0.075390 0.500000 
260 1 0.979588 0.075542 0.500000 
261 1 0.999557 0.075685 0.500000 
262 1 0.010532 0.100598 0.500000 
263 1 0.030566 0.101214 0.500000 
264 1 0.050602 0.101839 0.500000 
265 1 0.070640 0.102476 0.500000 
266 1 0.090670 0.103134 0.500000 
267 1 0.110699 0.103798 0.500000 
268 1 0.130732 0.104476 0.500000 
269 1 0.150767 0.105168 0.500000 
270 1 0.170802 0.105872 0.500000 
271 1 0.190837 0.106589 0.500000 
272 1 0.210871 0.107318 0.500000 
273 1 0.230905 0.108056 0.500000 
274 1 0.250936 0.108805 0.500000 
275 1 0.270963 0.109562 0.500000 
276 1 0.281324 0.093071 0.500000 
277 1 0.290985 0.110325 0.500000 
278 1 0.301339 0.093821 0.500000 
279 1 0.311000 0.111093 0.500000 
280 1 0.321346 0.094575 0.500000 
281 1 0.331006 0.111866 0.500000 
282 1 0.341345 0.095331 0.500000 
283 1 0.361336 0.096087 0.500000 
284 1 0.381316 0.096841 0.500000 
285 1 0.401285 0.097590 0.500000 
286 1 0.421242 0.098331 0.500000 
287 1 0.441189 0.099062 0.500000 
288 1 0.461123 0.099781 0.500000 
289 1 0.481044 0.100483 0.500000 
290 1 0.500955 0.101167 0.500000 
291 1 0.520855 0.101826 0.500000 
292 1 0.540747 0.102456 0.500000 
293 1 0.560634 0.103055 0.500000 
294 1 0.580518 0.103621 0.500000 
295 1 0.600402 0.104152 0.500000 
296 1 0.620288 0.104649 0.500000 
297 1 0.640179 0.105113 0.500000 
298 1 0.660076 0.105547 0.500000 
299 1 0.679979 0.105952 0.500000 
300 1 0.699889 0.106331 0.500000 
301 1 0.719803 0.106684 0.500000 
302 1 0.739723 0.107013 0.500000 
303 1 0.759648 0.107317 0.500000 
304 1 0.779578 0.107599 0.500000 
305 1 0.799514 0.107859 0.500000 
306 1 0.819457 0.108099 0.500000 
307 1 0.839406 0.108323 0.500000 
308 1 0.859358 0.108532 0.500000 
309 1 0.879314 0.108730 0.500000 
310 1 0.899272 0.108916 0.500000 
311 1 0.919230 0.109092 0.500000 
312 1 0.939193 0.109257 0.500000 
313 1 0.969375 0.092475 0.500000 
314 1 0.959160 0.109410 0.500000 
315 1 0.989349 0.092617 0.500000 
316 1 0.979136 0.109550 0.500000 
317 1 0.999117 0.109681 0.500000 
318 1 0.020165 0.117663 0.500000 
319 1 0.040201 0.118287 0.500000 
320 1 0.060239 0.118920 0.500000 
321 1 0.080278 0.119579 0.500000 
322 1 0.100314 0.120250 0.500000 
323 1 0.120349 0.120928 0.500000 
324 1 0.140386 0.121621 0.500000 
325 1 0.160422 0.122327 0.500000 
326 1 0.180458 0.123044 0.500000 
327 1 0.200492 0.123773 0.500000 
328 1 0.220528 0.124513 0.500000 
329 1 0.240563 0.125268 0.500000 
330 1 0.260597 0.126031 0.500000 
331 1 0.280624 0.126805 0.500000 
332 1 0.300646 0.127584 0.500000 
333 1 0.320660 0.128368 0.500000 
334 1 0.340665 0.129157 0.500000 
335 1 0.351004 0.112639 0.500000 
336 1 0.360660 0.129946 0.500000 
337 1 0.370992 0.113412 0.500000 
338 1 0.380645 0.130733 0.500000 
339 1 0.390968 0.114182 0.500000 
340 1 0.400618 0.131518 0.500000 
341 1 0.410934 0.114946 0.500000 
342 1 0.420578 0.132297 0.500000 
343 1 0.430887 0.115701 0.500000 
344 1 0.450828 0.116447 0.500000 
345 1 0.470755 0.117178 0.500000 
346 1 0.490669 0.117891 0.500000 
347 1 0.510573 0.118579 0.500000 
348 1 0.530468 0.119238 0.500000 
349 1 0.550357 0.119863 0.500000 
350 1 0.570242 0.120453 0.500000 
351 1 0.590126 0.121006 0.500000 
352 1 0.610010 0.121522 0.500000 
353 1 0.629898 0.122003 0.500000 
354 1 0.649793 0.122449 0.500000 
355 1 0.669695 0.122865 0.500000 
356 1 0.689607 0.123252 0.500000 
357 1 0.709525 0.123611 0.500000 
358 1 0.729449 0.123945 0.500000 
359 1 0.749378 0.124256 0.500000 
360 1 0.769312 0.124542 0.500000 
361 1 0.789251 0.124806 0.500000 
362 1 0.809196 0.125049 0.500000 
363 1 0.829149 0.125273 0.500000 
364 1 0.849107 0.125481 0.500000 
365 1 0.869070 0.125676 0.500000 
366 1 0.889035 0.125860 0.500000 
367 1 0.909002 0.126033 0.500000 
368 1 0.928970 0.126195 0.500000 
369 1 0.948940 0.126349 0.500000 
370 1 0.968919 0.126487 0.500000 
371 1 0.988905 0.126616 0.500000 
372 1 0.009754 0.134110 0.500000 
373 1 0.029790 0.134729 0.500000 
374 1 0.019367 0.151171 0.500000 
375 1 0.049825 0.135360 0.500000 
376 1 0.039403 0.151799 0.500000 
377 1 0.069865 0.136003 0.500000 
378 1 0.089915 0.136691 0.500000 
379 1 0.109958 0.137375 0.500000 
380 1 0.129997 0.138067 0.500000 
381 1 0.150036 0.138772 0.500000 
382 1 0.170073 0.139491 0.500000 
383 1 0.190109 0.140219 0.500000 
384 1 0.210147 0.140961 0.500000 
385 1 0.230184 0.141717 0.500000 
386 1 0.250221 0.142485 0.500000 
387 1 0.270256 0.143265 0.500000 
388 1 0.290284 0.144053 0.500000 
389 1 0.310305 0.144847 0.500000 
390 1 0.330318 0.145648 0.500000 
391 1 0.350321 0.146451 0.500000 
392 1 0.370315 0.147256 0.500000 
393 1 0.390297 0.148062 0.500000 
394 1 0.410264 0.148867 0.500000 
395 1 0.440525 0.133069 0.500000 
396 1 0.430214 0.149667 0.500000 
397 1 0.460456 0.133828 0.500000 
398 1 0.450147 0.150458 0.500000 
399 1 0.480373 0.134571 0.500000 
400 1 0.470065 0.151230 0.500000 
401 1 0.500279 0.135290 0.500000 
402 1 0.489973 0.151976 0.500000 
403 1 0.520176 0.135978 0.500000 
404 1 0.540068 0.136633 0.500000 
405 1 0.559955 0.137253 0.500000 
406 1 0.579840 0.137833 0.500000 
407 1 0.599725 0.138374 0.500000 
408 1 0.619611 0.138875 0.500000 
409 1 0.639503 0.139339 0.500000 
410 1 0.659404 0.139769 0.500000 
411 1 0.679314 0.140167 0.500000 
412 1 0.699232 0.140536 0.500000 
413 1 0.719160 0.140877 0.500000 
414 1 0.739094 0.141194 0.500000 
415 1 0.759033 0.141486 0.500000 
416 1 0.778977 0.141755 0.500000 
417 1 0.798925 0.142002 0.500000 
418 1 0.818880 0.142229 0.500000 
419 1 0.838842 0.142438 0.500000 
420 1 0.858810 0.142631 0.500000 
421 1 0.878785 0.142811 0.500000 
422 1 0.898761 0.142980 0.500000 
423 1 0.918739 0.143140 0.500000 
424 1 0.938718 0.143289 0.500000 
425 1 0.958701 0.143428 0.500000 
426 1 0.978689 0.143555 0.500000 
427 1 0.998682 0.143674 0.500000 
428 1 0.008938 0.167610 0.500000 
429 1 0.028972 0.168234 0.500000 
430 1 0.049008 0.168868 0.500000 
431 1 0.059442 0.152437 0.500000 
432 1 0.069047 0.169517 0.500000 
433 1 0.079500 0.153116 0.500000 
434 1 0.089121 0.170234 0.500000 
435 1 0.099552 0.153812 0.500000 
436 1 0.109180 0.170940 0.500000 
437 1 0.119597 0.154508 0.500000 
438 1 0.139639 0.155210 0.500000 
439 1 0.129229 0.171647 0.500000 
440 1 0.159679 0.155929 0.500000 
441 1 0.179719 0.156659 0.500000 
442 1 0.199758 0.157402 0.500000 
443 1 0.219798 0.158157 0.500000 
444 1 0.239838 0.158927 0.500000 
445 1 0.259877 0.159708 0.500000 
446 1 0.279912 0.160503 0.500000 
447 1 0.299942 0.161306 0.500000 
448 1 0.319965 0.162116 0.500000 
449 1 0.339979 0.162934 0.500000 
450 1 0.359983 0.163758 0.500000 
451 1 0.379974 0.164585 0.500000 
452 1 0.399947 0.165417 0.500000 
453 1 0.419899 0.166248 0.500000 
454 1 0.439831 0.167070 0.500000 
455 1 0.459748 0.167872 0.500000 
456 1 0.479657 0.168648 0.500000 
457 1 0.499560 0.169392 0.500000 
458 1 0.509874 0.152690 0.500000 
459 1 0.519457 0.170103 0.500000 
460 1 0.529769 0.153372 0.500000 
461 1 0.539352 0.170777 0.500000 
462 1 0.549660 0.154019 0.500000 
463 1 0.559244 0.171413 0.500000 
464 1 0.569548 0.154629 0.500000 
465 1 0.579134 0.172009 0.500000 
466 1 0.589433 0.155198 0.500000 
467 1 0.609319 0.155726 0.500000 
468 1 0.629210 0.156211 0.500000 
469 1 0.649107 0.156659 0.500000 
470 1 0.669014 0.157072 0.500000 
471 1 0.688931 0.157454 0.500000 
472 1 0.708858 0.157807 0.500000 
473 1 0.728794 0.158132 0.500000 
474 1 0.748738 0.158431 0.500000 
475 1 0.768688 0.158705 0.500000 
476 1 0.788642 0.158956 0.500000 
477 1 0.808601 0.159186 0.500000 
478 1 0.828567 0.159398 0.500000 
479 1 0.848540 0.159592 0.500000 
480 1 0.868520 0.159771 0.500000 
481 1 0.888506 0.159936 0.500000 
482 1 0.908495 0.160090 0.500000 
483 1 0.928485 0.160236 0.500000 
484 1 0.948477 0.160370 0.500000 
485 1 0.968470 0.160496 0.500000 
486 1 0.988467 0.160611 0.500000 
487 1 0.018532 0.184668 0.500000 
488 1 0.038566 0.185299 0.500000 
489 1 0.058602 0.185942 0.500000 
490 1 0.078673 0.186636 0.500000 
491 1 0.098742 0.187360 0.500000 
492 1 0.118801 0.188075 0.500000 
493 1 0.138854 0.188793 0.500000 
494 1 0.149273 0.172363 0.500000 
495 1 0.158903 0.189523 0.500000 
496 1 0.169317 0.173094 0.500000 
497 1 0.178953 0.190267 0.500000 
498 1 0.189361 0.173838 0.500000 
499 1 0.199001 0.191023 0.500000 
500 1 0.209405 0.174593 0.500000 
501 1 0.219050 0.191791 0.500000 
502 1 0.229448 0.175361 0.500000 
503 1 0.249491 0.176144 0.500000 
504 1 0.269533 0.176941 0.500000 
505 1 0.289573 0.177750 0.500000 
506 1 0.309608 0.178572 0.500000 
507 1 0.329636 0.179404 0.500000 
508 1 0.349653 0.180244 0.500000 
509 1 0.369653 0.181094 0.500000 
510 1 0.389630 0.181949 0.500000 
511 1 0.409581 0.182807 0.500000 
512 1 0.429511 0.183656 0.500000 
513 1 0.449430 0.184485 0.500000 
514 1 0.469341 0.185290 0.500000 
515 1 0.489245 0.186068 0.500000 
516 1 0.509143 0.186817 0.500000 
517 1 0.529038 0.187529 0.500000 
518 1 0.548931 0.188200 0.500000 
519 1 0.568822 0.188828 0.500000 
520 1 0.588712 0.189405 0.500000 
521 1 0.599021 0.172561 0.500000 
522 1 0.608603 0.189932 0.500000 
523 1 0.618910 0.173069 0.500000 
524 1 0.628496 0.190410 0.500000 
525 1 0.638805 0.173533 0.500000 
526 1 0.648395 0.190847 0.500000 
527 1 0.658708 0.173962 0.500000 
528 1 0.668306 0.191250 0.500000 
529 1 0.678622 0.174357 0.500000 
530 1 0.688228 0.191627 0.500000 
531 1 0.698547 0.174726 0.500000 
532 1 0.718482 0.175065 0.500000 
533 1 0.738428 0.175376 0.500000 
534 1 0.758383 0.175658 0.500000 
535 1 0.778345 0.175914 0.500000 
536 1 0.798311 0.176146 0.500000 
537 1 0.818283 0.176359 0.500000 
538 1 0.838260 0.176555 0.500000 
539 1 0.858246 0.176734 0.500000 
540 1 0.878239 0.176899 0.500000 
541 1 0.898238 0.177049 0.500000 
542 1 0.918240 0.177189 0.500000 
543 1 0.938243 0.177319 0.500000 
544 1 0.958249 0.177440 0.500000 
545 1 0.978251 0.177553 0.500000 
546 1 0.998258 0.177659 0.500000 
547 1 0.008083 0.201103 0.500000 
548 1 0.028113 0.201727 0.500000 
549 1 0.048147 0.202367 0.500000 
550 1 0.068185 0.203017 0.500000 
551 1 0.088275 0.203758 0.500000 
552 1 0.108351 0.204488 0.500000 
553 1 0.128415 0.205214 0.500000 
554 1 0.148474 0.205944 0.500000 
555 1 0.168528 0.206685 0.500000 
556 1 0.188583 0.207440 0.500000 
557 1 0.208639 0.208208 0.500000 
558 1 0.239098 0.192572 0.500000 
559 1 0.228697 0.208990 0.500000 
560 1 0.259148 0.193370 0.500000 
561 1 0.248757 0.209789 0.500000 
562 1 0.279199 0.194186 0.500000 
563 1 0.268820 0.210608 0.500000 
564 1 0.299249 0.195017 0.500000 
565 1 0.288883 0.211444 0.500000 
566 1 0.319291 0.195861 0.500000 
567 1 0.339321 0.196716 0.500000 
568 1 0.359327 0.197585 0.500000 
569 1 0.379305 0.198464 0.500000 
570 1 0.399255 0.199347 0.500000 
571 1 0.419187 0.200220 0.500000 
572 1 0.439111 0.201074 0.500000 
573 1 0.459027 0.201910 0.500000 
574 1 0.478936 0.202725 0.500000 
575 1 0.498840 0.203512 0.500000 
576 1 0.518738 0.204263 0.500000 
577 1 0.538627 0.204977 0.500000 
578 1 0.558510 0.205644 0.500000 
579 1 0.578397 0.206256 0.500000 
580 1 0.598289 0.206812 0.500000 
581 1 0.618181 0.207312 0.500000 
582 1 0.638077 0.207756 0.500000 
583 1 0.657981 0.208155 0.500000 
584 1 0.677899 0.208527 0.500000 
585 1 0.708162 0.191980 0.500000 
586 1 0.697834 0.208881 0.500000 
587 1 0.728108 0.192307 0.500000 
588 1 0.717781 0.209218 0.500000 
589 1 0.748063 0.192605 0.500000 
590 1 0.737738 0.209534 0.500000 
591 1 0.768030 0.192872 0.500000 
592 1 0.757705 0.209819 0.500000 
593 1 0.788006 0.193108 0.500000 
594 1 0.777684 0.210071 0.500000 
595 1 0.807987 0.193323 0.500000 
596 1 0.797675 0.210290 0.500000 
597 1 0.827973 0.193518 0.500000 
598 1 0.817673 0.210485 0.500000 
599 1 0.847965 0.193698 0.500000 
600 1 0.837675 0.210663 0.500000 
601 1 0.867963 0.193863 0.500000 
602 1 0.857681 0.210827 0.500000 
603 1 0.887969 0.194012 0.500000 
604 1 0.877693 0.210977 0.500000 
605 1 0.907981 0.194149 0.500000 
606 1 0.897712 0.211114 0.500000 
607 1 0.927998 0.194275 0.500000 
608 1 0.917739 0.211236 0.500000 
609 1 0.948021 0.194385 0.500000 
610 1 0.937772 0.211345 0.500000 
611 1 0.957807 0.211443 0.500000 
612 1 0.968031 0.194496 0.500000 
613 1 0.977825 0.211543 0.500000 
614 1 0.988043 0.194599 0.500000 
615 1 0.997847 0.211634 0.500000 
616 1 0.017654 0.218157 0.500000 
617 1 0.037684 0.218790 0.500000 
618 1 0.057718 0.219436 0.500000 
619 1 0.077794 0.220139 0.500000 
620 1 0.097877 0.220885 0.500000 
621 1 0.117954 0.221623 0.500000 
622 1 0.138023 0.222357 0.500000 
623 1 0.158086 0.223096 0.500000 
624 1 0.178145 0.223845 0.500000 
625 1 0.198210 0.224611 0.500000 
626 1 0.218279 0.225396 0.500000 
627 1 0.238353 0.226199 0.500000 
628 1 0.258426 0.227018 0.500000 
629 1 0.278497 0.227852 0.500000 
630 1 0.298557 0.228704 0.500000 
631 1 0.308938 0.212296 0.500000 
632 1 0.318595 0.229580 0.500000 
633 1 0.328975 0.213162 0.500000 
634 1 0.338602 0.230485 0.500000 
635 1 0.348984 0.214048 0.500000 
636 1 0.358583 0.231415 0.500000 
637 1 0.368961 0.214951 0.500000 
638 1 0.388914 0.215861 0.500000 
639 1 0.408856 0.216764 0.500000 
640 1 0.428792 0.217655 0.500000 
641 1 0.448717 0.218534 0.500000 
642 1 0.468635 0.219390 0.500000 
643 1 0.488548 0.220212 0.500000 
644 1 0.508450 0.221001 0.500000 
645 1 0.528335 0.221751 0.500000 
646 1 0.548214 0.222450 0.500000 
647 1 0.568097 0.223089 0.500000 
648 1 0.587984 0.223680 0.500000 
649 1 0.607876 0.224219 0.500000 
650 1 0.627771 0.224695 0.500000 
651 1 0.647667 0.225104 0.500000 
652 1 0.667572 0.225463 0.500000 
653 1 0.687498 0.225795 0.500000 
654 1 0.707444 0.226121 0.500000 
655 1 0.727406 0.226439 0.500000 
656 1 0.747377 0.226742 0.500000 
657 1 0.767357 0.227015 0.500000 
658 1 0.787349 0.227252 0.500000 
659 1 0.807355 0.227454 0.500000 
660 1 0.827370 0.227631 0.500000 
661 1 0.847390 0.227792 0.500000 
662 1 0.867412 0.227941 0.500000 
663 1 0.887438 0.228077 0.500000 
664 1 0.907473 0.228200 0.500000 
665 1 0.927519 0.228307 0.500000 
666 1 0.947580 0.228392 0.500000 
667 1 0.967605 0.228489 0.500000 
668 1 0.987634 0.228577 0.500000 
669 1 0.007189 0.234587 0.500000 
670 1 0.027214 0.235215 0.500000 
671 1 0.047243 0.235854 0.500000 
672 1 0.067275 0.236508 0.500000 
673 1 0.087375 0.237262 0.500000 
674 1 0.107467 0.238015 0.500000 
675 1 0.127547 0.238757 0.500000 
676 1 0.147618 0.239497 0.500000 
677 1 0.167686 0.240243 0.500000 
678 1 0.187757 0.241003 0.500000 
679 1 0.207837 0.241787 0.500000 
680 1 0.227923 0.242592 0.500000 
681 1 0.248006 0.243409 0.500000 
682 1 0.268078 0.244240 0.500000 
683 1 0.288135 0.245091 0.500000 
684 1 0.308169 0.245976 0.500000 
685 1 0.328177 0.246905 0.500000 
686 1 0.348168 0.247866 0.500000 
687 1 0.378549 0.232356 0.500000 
688 1 0.368154 0.248843 0.500000 
689 1 0.398510 0.233297 0.500000 
690 1 0.388137 0.249821 0.500000 
691 1 0.418463 0.234233 0.500000 
692 1 0.408112 0.250795 0.500000 
693 1 0.438406 0.235157 0.500000 
694 1 0.428080 0.251751 0.500000 
695 1 0.458341 0.236054 0.500000 
696 1 0.478265 0.236918 0.500000 
697 1 0.498165 0.237754 0.500000 
698 1 0.518047 0.238547 0.500000 
699 1 0.537929 0.239273 0.500000 
700 1 0.557813 0.239936 0.500000 
701 1 0.577696 0.240546 0.500000 
702 1 0.597587 0.241107 0.500000 
703 1 0.617486 0.241621 0.500000 
704 1 0.637385 0.242076 0.500000 
705 1 0.657281 0.242453 0.500000 
706 1 0.677185 0.242768 0.500000 
707 1 0.697114 0.243058 0.500000 
708 1 0.717070 0.243349 0.500000 
709 1 0.737045 0.243645 0.500000 
710 1 0.757031 0.243932 0.500000 
711 1 0.777025 0.244192 0.500000 
712 1 0.797030 0.244415 0.500000 
713 1 0.817050 0.244600 0.500000 
714 1 0.837084 0.244759 0.500000 
715 1 0.857122 0.244904 0.500000 
716 1 0.877161 0.245039 0.500000 
717 1 0.897202 0.245163 0.500000 
718 1 0.917253 0.245272 0.500000 
719 1 0.937316 0.245359 0.500000 
720 1 0.957383 0.245436 0.500000 
721 1 0.977417 0.245522 0.500000 
722 1 0.997455 0.245600 0.500000 
723 1 0.016737 0.251640 0.500000 
724 1 0.006256 0.268068 0.500000 
725 1 0.036760 0.252274 0.500000 
726 1 0.026272 0.268696 0.500000 
727 1 0.056787 0.252921 0.500000 
728 1 0.046292 0.269335 0.500000 
729 1 0.076866 0.253629 0.500000 
730 1 0.066319 0.269991 0.500000 
731 1 0.096957 0.254388 0.500000 
732 1 0.086423 0.270751 0.500000 
733 1 0.117047 0.255142 0.500000 
734 1 0.137125 0.255884 0.500000 
735 1 0.157200 0.256627 0.500000 
736 1 0.177281 0.257386 0.500000 
737 1 0.197371 0.258166 0.500000 
738 1 0.217463 0.258966 0.500000 
739 1 0.237551 0.259779 0.500000 
740 1 0.257623 0.260605 0.500000 
741 1 0.277676 0.261459 0.500000 
742 1 0.297709 0.262361 0.500000 
743 1 0.317724 0.263314 0.500000 
744 1 0.337732 0.264306 0.500000 
745 1 0.357738 0.265310 0.500000 
746 1 0.377741 0.266313 0.500000 
747 1 0.397741 0.267306 0.500000 
748 1 0.417735 0.268279 0.500000 
749 1 0.437710 0.269242 0.500000 
750 1 0.448040 0.252679 0.500000 
751 1 0.457645 0.270204 0.500000 
752 1 0.467975 0.253589 0.500000 
753 1 0.477554 0.271150 0.500000 
754 1 0.487876 0.254482 0.500000 
755 1 0.507762 0.255326 0.500000 
756 1 0.527650 0.256103 0.500000 
757 1 0.547534 0.256817 0.500000 
758 1 0.567414 0.257459 0.500000 
759 1 0.587299 0.258022 0.500000 
760 1 0.607199 0.258534 0.500000 
761 1 0.627113 0.259018 0.500000 
762 1 0.647026 0.259450 0.500000 
763 1 0.666928 0.259798 0.500000 
764 1 0.686831 0.260070 0.500000 
765 1 0.706760 0.260315 0.500000 
766 1 0.726721 0.260569 0.500000 
767 1 0.746708 0.260839 0.500000 
768 1 0.766708 0.261106 0.500000 
769 1 0.786714 0.261351 0.500000 
770 1 0.806730 0.261559 0.500000 
771 1 0.826766 0.261728 0.500000 
772 1 0.846817 0.261871 0.500000 
773 1 0.866875 0.262000 0.500000 
774 1 0.886930 0.262122 0.500000 
775 1 0.906990 0.262233 0.500000 
776 1 0.927064 0.262324 0.500000 
777 1 0.947159 0.262387 0.500000 
778 1 0.967200 0.262468 0.500000 
779 1 0.987245 0.262544 0.500000 
780 1 0.015779 0.285121 0.500000 
781 1 0.035792 0.285753 0.500000 
782 1 0.055810 0.286400 0.500000 
783 1 0.075888 0.287111 0.500000 
784 1 0.095978 0.287868 0.500000 
785 1 0.106521 0.271509 0.500000 
786 1 0.116067 0.288622 0.500000 
787 1 0.126607 0.272260 0.500000 
788 1 0.136153 0.289369 0.500000 
789 1 0.146688 0.273003 0.500000 
790 1 0.156249 0.290120 0.500000 
791 1 0.166777 0.273758 0.500000 
792 1 0.176360 0.290890 0.500000 
793 1 0.186879 0.274535 0.500000 
794 1 0.206977 0.275327 0.500000 
795 1 0.227063 0.276130 0.500000 
796 1 0.247133 0.276953 0.500000 
797 1 0.267189 0.277818 0.500000 
798 1 0.287229 0.278741 0.500000 
799 1 0.307258 0.279718 0.500000 
800 1 0.327284 0.280728 0.500000 
801 1 0.347311 0.281743 0.500000 
802 1 0.367340 0.282755 0.500000 
803 1 0.387364 0.283756 0.500000 
804 1 0.407372 0.284758 0.500000 
805 1 0.427341 0.285770 0.500000 
806 1 0.447277 0.286791 0.500000 
807 1 0.467198 0.287791 0.500000 
808 1 0.497460 0.272048 0.500000 
809 1 0.487108 0.288741 0.500000 
810 1 0.507009 0.289632 0.500000 
811 1 0.517357 0.272887 0.500000 
812 1 0.526905 0.290455 0.500000 
813 1 0.537242 0.273665 0.500000 
814 1 0.546799 0.291208 0.500000 
815 1 0.557123 0.274371 0.500000 
816 1 0.577007 0.274985 0.500000 
817 1 0.596890 0.275506 0.500000 
818 1 0.616795 0.275964 0.500000 
819 1 0.636732 0.276402 0.500000 
820 1 0.656673 0.276809 0.500000 
821 1 0.676596 0.277128 0.500000 
822 1 0.696509 0.277363 0.500000 
823 1 0.716440 0.277565 0.500000 
824 1 0.736405 0.277783 0.500000 
825 1 0.756401 0.278023 0.500000 
826 1 0.776412 0.278268 0.500000 
827 1 0.796428 0.278493 0.500000 
828 1 0.816455 0.278683 0.500000 
829 1 0.836504 0.278836 0.500000 
830 1 0.856574 0.278964 0.500000 
831 1 0.876650 0.279080 0.500000 
832 1 0.896723 0.279190 0.500000 
833 1 0.916800 0.279286 0.500000 
834 1 0.936890 0.279356 0.500000 
835 1 0.956982 0.279417 0.500000 
836 1 0.977036 0.279488 0.500000 
837 1 0.997089 0.279555 0.500000 
838 1 0.005284 0.301547 0.500000 
839 1 0.025288 0.302175 0.500000 
840 1 0.045299 0.302815 0.500000 
841 1 0.065313 0.303468 0.500000 
842 1 0.085417 0.304224 0.500000 
843 1 0.105508 0.304975 0.500000 
844 1 0.125597 0.305724 0.500000 
845 1 0.145698 0.306475 0.500000 
846 1 0.165815 0.307237 0.500000 
847 1 0.196464 0.291675 0.500000 
848 1 0.185923 0.308011 0.500000 
849 1 0.216547 0.292467 0.500000 
850 1 0.206005 0.308797 0.500000 
851 1 0.236616 0.293288 0.500000 
852 1 0.226069 0.309616 0.500000 
853 1 0.256678 0.294167 0.500000 
854 1 0.246140 0.310505 0.500000 
855 1 0.276733 0.295110 0.500000 
856 1 0.266211 0.311462 0.500000 
857 1 0.296780 0.296104 0.500000 
858 1 0.316822 0.297114 0.500000 
859 1 0.336873 0.298131 0.500000 
860 1 0.356925 0.299142 0.500000 
861 1 0.376971 0.300170 0.500000 
862 1 0.396984 0.301220 0.500000 
863 1 0.416961 0.302297 0.500000 
864 1 0.436915 0.303380 0.500000 
865 1 0.456842 0.304438 0.500000 
866 1 0.476749 0.305453 0.500000 
867 1 0.496644 0.306394 0.500000 
868 1 0.516541 0.307259 0.500000 
869 1 0.536443 0.308050 0.500000 
870 1 0.566692 0.291897 0.500000 
871 1 0.556344 0.308768 0.500000 
872 1 0.586574 0.292504 0.500000 
873 1 0.576251 0.309421 0.500000 
874 1 0.606457 0.292983 0.500000 
875 1 0.596156 0.309990 0.500000 
876 1 0.626362 0.293381 0.500000 
877 1 0.616038 0.310443 0.500000 
878 1 0.646314 0.293771 0.500000 
879 1 0.635937 0.310789 0.500000 
880 1 0.666292 0.294141 0.500000 
881 1 0.686254 0.294434 0.500000 