ITEM: TIMESTEP
1400
ITEM: NUMBER OF ATOMS
2850
ITEM: BOX BOUNDS ss ss pp
-28.0536 28.3253 
-28.9988 28.9984 
-0.5 0.5 
ITEM: ATOMS id type xs ys zs
1 1 0.012661 0.000000 0.500000 
2 1 0.032688 0.000597 0.500000 
3 1 0.052715 0.001202 0.500000 
4 1 0.072742 0.001814 0.500000 
5 1 0.092767 0.002433 0.500000 
6 1 0.112794 0.003060 0.500000 
7 1 0.132817 0.003697 0.500000 
8 1 0.152841 0.004338 0.500000 
9 1 0.172861 0.004988 0.500000 
10 1 0.192879 0.005643 0.500000 
11 1 0.212895 0.006305 0.500000 
12 1 0.232906 0.006973 0.500000 
13 1 0.252912 0.007645 0.500000 
14 1 0.272914 0.008319 0.500000 
15 1 0.292911 0.008997 0.500000 
16 1 0.312901 0.009676 0.500000 
17 1 0.332885 0.010356 0.500000 
18 1 0.352861 0.011033 0.500000 
19 1 0.372830 0.011707 0.500000 
20 1 0.392791 0.012376 0.500000 
21 1 0.022340 0.017073 0.500000 
22 1 0.042369 0.017677 0.500000 
23 1 0.062397 0.018289 0.500000 
24 1 0.082426 0.018911 0.500000 
25 1 0.102455 0.019539 0.500000 
26 1 0.122484 0.020177 0.500000 
27 1 0.142511 0.020822 0.500000 
28 1 0.162536 0.021475 0.500000 
29 1 0.182559 0.022136 0.500000 
30 1 0.202579 0.022803 0.500000 
31 1 0.222596 0.023475 0.500000 
32 1 0.242610 0.024155 0.500000 
33 1 0.262618 0.024839 0.500000 
34 1 0.282622 0.025527 0.500000 
35 1 0.302619 0.026217 0.500000 
36 1 0.322610 0.026908 0.500000 
37 1 0.342593 0.027600 0.500000 
38 1 0.362570 0.028289 0.500000 
39 1 0.382537 0.028974 0.500000 
40 1 0.402497 0.029655 0.500000 
41 1 0.412744 0.013039 0.500000 
42 1 0.422448 0.030326 0.500000 
43 1 0.432688 0.013694 0.500000 
44 1 0.442390 0.030989 0.500000 
45 1 0.452624 0.014337 0.500000 
46 1 0.462324 0.031639 0.500000 
47 1 0.472553 0.014968 0.500000 
48 1 0.482250 0.032276 0.500000 
49 1 0.492474 0.015584 0.500000 
50 1 0.512388 0.016184 0.500000 
51 1 0.532295 0.016766 0.500000 
52 1 0.552198 0.017330 0.500000 
53 1 0.572095 0.017873 0.500000 
54 1 0.591989 0.018396 0.500000 
55 1 0.611880 0.018896 0.500000 
56 1 0.631769 0.019373 0.500000 
57 1 0.651657 0.019829 0.500000 
58 1 0.671546 0.020261 0.500000 
59 1 0.691436 0.020670 0.500000 
60 1 0.711328 0.021058 0.500000 
61 1 0.731222 0.021423 0.500000 
62 1 0.751120 0.021768 0.500000 
63 1 0.771021 0.022094 0.500000 
64 1 0.790927 0.022399 0.500000 
65 1 0.810837 0.022687 0.500000 
66 1 0.830751 0.022958 0.500000 
67 1 0.850671 0.023211 0.500000 
68 1 0.870595 0.023449 0.500000 
69 1 0.890525 0.023674 0.500000 
70 1 0.910459 0.023884 0.500000 
71 1 0.930398 0.024080 0.500000 
72 1 0.950341 0.024267 0.500000 
73 1 0.970290 0.024443 0.500000 
74 1 0.990243 0.024606 0.500000 
75 1 0.011983 0.033545 0.500000 
76 1 0.032014 0.034148 0.500000 
77 1 0.021650 0.050615 0.500000 
78 1 0.052044 0.034760 0.500000 
79 1 0.041680 0.051227 0.500000 
80 1 0.072075 0.035381 0.500000 
81 1 0.061715 0.051847 0.500000 
82 1 0.092107 0.036012 0.500000 
83 1 0.081762 0.052501 0.500000 
84 1 0.112138 0.036650 0.500000 
85 1 0.132168 0.037297 0.500000 
86 1 0.152197 0.037952 0.500000 
87 1 0.172226 0.038617 0.500000 
88 1 0.192251 0.039288 0.500000 
89 1 0.212274 0.039967 0.500000 
90 1 0.232293 0.040654 0.500000 
91 1 0.252309 0.041345 0.500000 
92 1 0.272318 0.042042 0.500000 
93 1 0.292324 0.042743 0.500000 
94 1 0.312323 0.043447 0.500000 
95 1 0.332314 0.044150 0.500000 
96 1 0.352297 0.044856 0.500000 
97 1 0.372273 0.045557 0.500000 
98 1 0.392240 0.046254 0.500000 
99 1 0.412198 0.046944 0.500000 
100 1 0.432147 0.047626 0.500000 
101 1 0.452087 0.048297 0.500000 
102 1 0.472018 0.048954 0.500000 
103 1 0.502167 0.032896 0.500000 
104 1 0.491940 0.049595 0.500000 
105 1 0.522078 0.033498 0.500000 
106 1 0.511855 0.050220 0.500000 
107 1 0.541983 0.034081 0.500000 
108 1 0.531762 0.050823 0.500000 
109 1 0.561882 0.034643 0.500000 
110 1 0.551663 0.051406 0.500000 
111 1 0.581777 0.035184 0.500000 
112 1 0.571560 0.051966 0.500000 
113 1 0.601668 0.035702 0.500000 
114 1 0.591452 0.052503 0.500000 
115 1 0.621558 0.036195 0.500000 
116 1 0.641446 0.036666 0.500000 
117 1 0.661334 0.037110 0.500000 
118 1 0.681223 0.037533 0.500000 
119 1 0.701115 0.037931 0.500000 
120 1 0.721007 0.038307 0.500000 
121 1 0.740905 0.038660 0.500000 
122 1 0.760806 0.038993 0.500000 
123 1 0.780711 0.039305 0.500000 
124 1 0.800620 0.039597 0.500000 
125 1 0.820536 0.039873 0.500000 
126 1 0.840456 0.040130 0.500000 
127 1 0.860382 0.040369 0.500000 
128 1 0.880312 0.040595 0.500000 
129 1 0.900248 0.040807 0.500000 
130 1 0.920188 0.041005 0.500000 
131 1 0.940134 0.041192 0.500000 
132 1 0.960084 0.041368 0.500000 
133 1 0.980040 0.041531 0.500000 
134 1 1.000000 0.041686 0.500000 
135 1 0.011275 0.067077 0.500000 
136 1 0.031308 0.067688 0.500000 
137 1 0.051342 0.068307 0.500000 
138 1 0.071376 0.068936 0.500000 
139 1 0.091438 0.069629 0.500000 
140 1 0.101793 0.053162 0.500000 
141 1 0.111478 0.070287 0.500000 
142 1 0.121834 0.053809 0.500000 
143 1 0.131522 0.070940 0.500000 
144 1 0.141871 0.054467 0.500000 
145 1 0.151556 0.071616 0.500000 
146 1 0.161902 0.055132 0.500000 
147 1 0.171578 0.072297 0.500000 
148 1 0.181937 0.055808 0.500000 
149 1 0.201972 0.056485 0.500000 
150 1 0.221990 0.057160 0.500000 
151 1 0.241993 0.057861 0.500000 
152 1 0.262008 0.058570 0.500000 
153 1 0.282013 0.059292 0.500000 
154 1 0.302010 0.060020 0.500000 
155 1 0.322022 0.060725 0.500000 
156 1 0.342023 0.061421 0.500000 
157 1 0.361966 0.062150 0.500000 
158 1 0.381909 0.062832 0.500000 
159 1 0.401883 0.063528 0.500000 
160 1 0.421842 0.064221 0.500000 
161 1 0.441772 0.064898 0.500000 
162 1 0.461697 0.065599 0.500000 
163 1 0.481615 0.066273 0.500000 
164 1 0.501524 0.066892 0.500000 
165 1 0.521436 0.067522 0.500000 
166 1 0.541325 0.068134 0.500000 
167 1 0.561227 0.068708 0.500000 
168 1 0.581133 0.069262 0.500000 
169 1 0.601032 0.069782 0.500000 
170 1 0.611341 0.053013 0.500000 
171 1 0.620916 0.070298 0.500000 
172 1 0.631230 0.053499 0.500000 
173 1 0.640807 0.070744 0.500000 
174 1 0.651117 0.053960 0.500000 
175 1 0.671006 0.054396 0.500000 
176 1 0.660691 0.071191 0.500000 
177 1 0.690897 0.054806 0.500000 
178 1 0.680587 0.071637 0.500000 
179 1 0.710789 0.055192 0.500000 
180 1 0.700490 0.072031 0.500000 
181 1 0.730685 0.055554 0.500000 
182 1 0.720402 0.072412 0.500000 
183 1 0.750586 0.055894 0.500000 
184 1 0.770490 0.056213 0.500000 
185 1 0.790400 0.056511 0.500000 
186 1 0.810316 0.056789 0.500000 
187 1 0.830238 0.057049 0.500000 
188 1 0.850164 0.057294 0.500000 
189 1 0.870095 0.057522 0.500000 
190 1 0.890032 0.057734 0.500000 
191 1 0.909975 0.057934 0.500000 
192 1 0.929922 0.058120 0.500000 
193 1 0.949875 0.058294 0.500000 
194 1 0.969833 0.058458 0.500000 
195 1 0.989796 0.058613 0.500000 
196 1 0.020924 0.084144 0.500000 
197 1 0.040959 0.084763 0.500000 
198 1 0.060994 0.085390 0.500000 
199 1 0.081028 0.086035 0.500000 
200 1 0.101097 0.086729 0.500000 
201 1 0.121176 0.087376 0.500000 
202 1 0.141239 0.088063 0.500000 
203 1 0.161268 0.088784 0.500000 
204 1 0.191623 0.072981 0.500000 
205 1 0.181281 0.089470 0.500000 
206 1 0.211672 0.073668 0.500000 
207 1 0.201317 0.090150 0.500000 
208 1 0.221354 0.090858 0.500000 
209 1 0.231686 0.074365 0.500000 
210 1 0.241343 0.091588 0.500000 
211 1 0.251655 0.075076 0.500000 
212 1 0.261301 0.092327 0.500000 
213 1 0.271609 0.075810 0.500000 
214 1 0.291615 0.076547 0.500000 
215 1 0.311635 0.077288 0.500000 
216 1 0.331627 0.077979 0.500000 
217 1 0.351576 0.078710 0.500000 
218 1 0.371524 0.079419 0.500000 
219 1 0.391477 0.080099 0.500000 
220 1 0.411443 0.080811 0.500000 
221 1 0.431419 0.081534 0.500000 
222 1 0.451339 0.082254 0.500000 
223 1 0.471238 0.082930 0.500000 
224 1 0.491162 0.083590 0.500000 
225 1 0.511076 0.084224 0.500000 
226 1 0.530986 0.084862 0.500000 
227 1 0.550904 0.085468 0.500000 
228 1 0.570833 0.086039 0.500000 
229 1 0.590734 0.086548 0.500000 
230 1 0.610624 0.087092 0.500000 
231 1 0.630523 0.087570 0.500000 
232 1 0.650413 0.088018 0.500000 
233 1 0.670318 0.088455 0.500000 
234 1 0.690224 0.088863 0.500000 
235 1 0.710123 0.089256 0.500000 
236 1 0.730052 0.089596 0.500000 
237 1 0.740346 0.072727 0.500000 
238 1 0.749996 0.089929 0.500000 
239 1 0.760290 0.073084 0.500000 
240 1 0.769962 0.090312 0.500000 
241 1 0.780198 0.073434 0.500000 
242 1 0.789913 0.090599 0.500000 
243 1 0.800113 0.073691 0.500000 
244 1 0.809827 0.090842 0.500000 
245 1 0.820041 0.073944 0.500000 
246 1 0.829740 0.091128 0.500000 
247 1 0.839937 0.074218 0.500000 
248 1 0.849668 0.091371 0.500000 
249 1 0.859839 0.074435 0.500000 
250 1 0.869600 0.091581 0.500000 
251 1 0.879768 0.074671 0.500000 
252 1 0.889541 0.091773 0.500000 
253 1 0.899721 0.074859 0.500000 
254 1 0.909493 0.091926 0.500000 
255 1 0.919688 0.075014 0.500000 
256 1 0.929456 0.092110 0.500000 
257 1 0.939649 0.075182 0.500000 
258 1 0.949407 0.092323 0.500000 
259 1 0.959621 0.075390 0.500000 
260 1 0.979588 0.075542 0.500000 
261 1 0.999557 0.075685 0.500000 
262 1 0.010532 0.100598 0.500000 
263 1 0.030566 0.101214 0.500000 
264 1 0.050602 0.101839 0.500000 
265 1 0.070640 0.102476 0.500000 
266 1 0.090694 0.103140 0.500000 
267 1 0.110786 0.103795 0.500000 
268 1 0.130865 0.104475 0.500000 
269 1 0.150926 0.105215 0.500000 
270 1 0.170980 0.105953 0.500000 
271 1 0.191009 0.106643 0.500000 
272 1 0.211015 0.107348 0.500000 
273 1 0.231018 0.108076 0.500000 
274 1 0.251022 0.108809 0.500000 
275 1 0.271023 0.109563 0.500000 
276 1 0.281272 0.093050 0.500000 
277 1 0.291000 0.110315 0.500000 
278 1 0.301269 0.093793 0.500000 
279 1 0.310969 0.111054 0.500000 
280 1 0.321274 0.094528 0.500000 
281 1 0.330944 0.111803 0.500000 
282 1 0.341231 0.095268 0.500000 
283 1 0.361184 0.095998 0.500000 
284 1 0.381142 0.096710 0.500000 
285 1 0.401093 0.097432 0.500000 
286 1 0.421025 0.098140 0.500000 
287 1 0.440949 0.098884 0.500000 
288 1 0.460875 0.099588 0.500000 
289 1 0.480799 0.100252 0.500000 
290 1 0.500732 0.100930 0.500000 
291 1 0.520664 0.101554 0.500000 
292 1 0.540583 0.102197 0.500000 
293 1 0.560508 0.102786 0.500000 
294 1 0.580435 0.103348 0.500000 
295 1 0.600336 0.103866 0.500000 
296 1 0.620256 0.104380 0.500000 
297 1 0.640177 0.104838 0.500000 
298 1 0.660092 0.105276 0.500000 
299 1 0.680011 0.105715 0.500000 
300 1 0.699920 0.106106 0.500000 
301 1 0.719848 0.106486 0.500000 
302 1 0.739746 0.106824 0.500000 
303 1 0.759641 0.107146 0.500000 
304 1 0.779607 0.107471 0.500000 
305 1 0.799572 0.107750 0.500000 
306 1 0.819495 0.108027 0.500000 
307 1 0.839398 0.108301 0.500000 
308 1 0.859321 0.108505 0.500000 
309 1 0.879270 0.108690 0.500000 
310 1 0.899257 0.108863 0.500000 
311 1 0.919235 0.109040 0.500000 
312 1 0.939197 0.109257 0.500000 
313 1 0.969375 0.092475 0.500000 
314 1 0.959160 0.109410 0.500000 
315 1 0.989349 0.092617 0.500000 
316 1 0.979136 0.109550 0.500000 
317 1 0.999117 0.109681 0.500000 
318 1 0.020165 0.117663 0.500000 
319 1 0.040201 0.118287 0.500000 
320 1 0.060239 0.118920 0.500000 
321 1 0.080284 0.119569 0.500000 
322 1 0.100373 0.120221 0.500000 
323 1 0.120439 0.120897 0.500000 
324 1 0.140493 0.121614 0.500000 
325 1 0.160550 0.122360 0.500000 
326 1 0.180607 0.123085 0.500000 
327 1 0.200643 0.123801 0.500000 
328 1 0.220681 0.124535 0.500000 
329 1 0.240703 0.125272 0.500000 
330 1 0.260699 0.126035 0.500000 
331 1 0.280691 0.126842 0.500000 
332 1 0.300682 0.127605 0.500000 
333 1 0.320659 0.128345 0.500000 
334 1 0.340633 0.129100 0.500000 
335 1 0.350915 0.112569 0.500000 
336 1 0.360588 0.129859 0.500000 
337 1 0.370852 0.113315 0.500000 
338 1 0.380505 0.130609 0.500000 
339 1 0.390772 0.114036 0.500000 
340 1 0.400407 0.131353 0.500000 
341 1 0.410706 0.114771 0.500000 
342 1 0.420331 0.132087 0.500000 
343 1 0.430645 0.115495 0.500000 
344 1 0.450572 0.116222 0.500000 
345 1 0.470485 0.116933 0.500000 
346 1 0.490392 0.117631 0.500000 
347 1 0.510326 0.118256 0.500000 
348 1 0.530259 0.118909 0.500000 
349 1 0.550199 0.119539 0.500000 
350 1 0.570120 0.120108 0.500000 
351 1 0.590041 0.120652 0.500000 
352 1 0.609963 0.121178 0.500000 
353 1 0.629891 0.121653 0.500000 
354 1 0.649813 0.122087 0.500000 
355 1 0.669747 0.122511 0.500000 
356 1 0.689693 0.122974 0.500000 
357 1 0.709617 0.123351 0.500000 
358 1 0.729536 0.123732 0.500000 
359 1 0.749427 0.124040 0.500000 
360 1 0.769363 0.124312 0.500000 
361 1 0.789338 0.124633 0.500000 
362 1 0.809268 0.124952 0.500000 
363 1 0.829166 0.125210 0.500000 
364 1 0.849086 0.125432 0.500000 
365 1 0.869019 0.125660 0.500000 
366 1 0.888987 0.125813 0.500000 
367 1 0.908966 0.125998 0.500000 
368 1 0.928932 0.126203 0.500000 
369 1 0.948940 0.126349 0.500000 
370 1 0.968919 0.126487 0.500000 
371 1 0.988905 0.126616 0.500000 
372 1 0.009754 0.134110 0.500000 
373 1 0.029790 0.134729 0.500000 
374 1 0.019367 0.151171 0.500000 
375 1 0.049825 0.135360 0.500000 
376 1 0.039403 0.151799 0.500000 
377 1 0.069865 0.136003 0.500000 
378 1 0.089928 0.136630 0.500000 
379 1 0.109997 0.137321 0.500000 
380 1 0.130052 0.138021 0.500000 
381 1 0.150100 0.138761 0.500000 
382 1 0.170154 0.139478 0.500000 
383 1 0.190226 0.140202 0.500000 
384 1 0.210283 0.140943 0.500000 
385 1 0.230317 0.141720 0.500000 
386 1 0.250321 0.142512 0.500000 
387 1 0.270322 0.143320 0.500000 
388 1 0.290336 0.144125 0.500000 
389 1 0.310326 0.144889 0.500000 
390 1 0.330301 0.145617 0.500000 
391 1 0.350265 0.146393 0.500000 
392 1 0.370199 0.147157 0.500000 
393 1 0.390126 0.147915 0.500000 
394 1 0.410047 0.148684 0.500000 
395 1 0.440253 0.132861 0.500000 
396 1 0.429936 0.149482 0.500000 
397 1 0.460167 0.133615 0.500000 
398 1 0.449839 0.150265 0.500000 
399 1 0.480085 0.134331 0.500000 
400 1 0.469774 0.150992 0.500000 
401 1 0.500018 0.135000 0.500000 
402 1 0.489695 0.151689 0.500000 
403 1 0.519916 0.135668 0.500000 
404 1 0.539843 0.136326 0.500000 
405 1 0.559771 0.136899 0.500000 
406 1 0.579694 0.137424 0.500000 
407 1 0.599629 0.137954 0.500000 
408 1 0.619571 0.138447 0.500000 
409 1 0.639513 0.138915 0.500000 
410 1 0.659446 0.139355 0.500000 
411 1 0.679366 0.139773 0.500000 
412 1 0.699322 0.140220 0.500000 
413 1 0.719263 0.140589 0.500000 
414 1 0.739195 0.140952 0.500000 
415 1 0.759138 0.141217 0.500000 
416 1 0.779082 0.141482 0.500000 
417 1 0.799019 0.141843 0.500000 
418 1 0.818943 0.142126 0.500000 
419 1 0.838867 0.142322 0.500000 
420 1 0.858838 0.142585 0.500000 
421 1 0.878822 0.142808 0.500000 
422 1 0.898766 0.142979 0.500000 
423 1 0.918696 0.143167 0.500000 
424 1 0.938676 0.143302 0.500000 
425 1 0.958701 0.143428 0.500000 
426 1 0.978689 0.143555 0.500000 
427 1 0.998682 0.143674 0.500000 
428 1 0.008938 0.167610 0.500000 
429 1 0.028972 0.168234 0.500000 
430 1 0.049008 0.168868 0.500000 
431 1 0.059442 0.152437 0.500000 
432 1 0.069047 0.169517 0.500000 
433 1 0.079499 0.153072 0.500000 
434 1 0.089105 0.170141 0.500000 
435 1 0.099533 0.153716 0.500000 
436 1 0.109164 0.170795 0.500000 
437 1 0.119590 0.154405 0.500000 
438 1 0.139672 0.155141 0.500000 
439 1 0.129240 0.171497 0.500000 
440 1 0.159747 0.155891 0.500000 
441 1 0.179808 0.156609 0.500000 
442 1 0.199858 0.157354 0.500000 
443 1 0.219899 0.158149 0.500000 
444 1 0.239908 0.158972 0.500000 
445 1 0.259921 0.159771 0.500000 
446 1 0.279952 0.160563 0.500000 
447 1 0.299977 0.161365 0.500000 
448 1 0.319953 0.162153 0.500000 
449 1 0.339879 0.162907 0.500000 
450 1 0.359853 0.163694 0.500000 
451 1 0.379814 0.164494 0.500000 
452 1 0.399729 0.165284 0.500000 
453 1 0.419625 0.166113 0.500000 
454 1 0.439551 0.166887 0.500000 
455 1 0.459492 0.167645 0.500000 
456 1 0.479378 0.168386 0.500000 
457 1 0.499250 0.169111 0.500000 
458 1 0.509585 0.152413 0.500000 
459 1 0.519169 0.169794 0.500000 
460 1 0.529492 0.153079 0.500000 
461 1 0.539092 0.170445 0.500000 
462 1 0.549420 0.153694 0.500000 
463 1 0.559018 0.171032 0.500000 
464 1 0.569337 0.154240 0.500000 
465 1 0.578971 0.171568 0.500000 
466 1 0.589289 0.154748 0.500000 
467 1 0.609260 0.155239 0.500000 
468 1 0.629202 0.155706 0.500000 
469 1 0.649156 0.156194 0.500000 
470 1 0.669134 0.156624 0.500000 
471 1 0.689093 0.157035 0.500000 
472 1 0.709050 0.157455 0.500000 
473 1 0.728961 0.157818 0.500000 
474 1 0.748908 0.158131 0.500000 
475 1 0.768839 0.158405 0.500000 
476 1 0.788740 0.158686 0.500000 
477 1 0.808694 0.159006 0.500000 
478 1 0.828637 0.159257 0.500000 
479 1 0.848580 0.159458 0.500000 
480 1 0.868567 0.159717 0.500000 
481 1 0.888559 0.159940 0.500000 
482 1 0.908514 0.160142 0.500000 
483 1 0.928492 0.160274 0.500000 
484 1 0.948477 0.160370 0.500000 
485 1 0.968470 0.160496 0.500000 
486 1 0.988467 0.160611 0.500000 
487 1 0.018532 0.184668 0.500000 
488 1 0.038566 0.185299 0.500000 
489 1 0.058602 0.185942 0.500000 
490 1 0.078647 0.186571 0.500000 
491 1 0.098709 0.187205 0.500000 
492 1 0.118786 0.187891 0.500000 
493 1 0.138838 0.188667 0.500000 
494 1 0.149312 0.172287 0.500000 
495 1 0.158905 0.189464 0.500000 
496 1 0.169365 0.173048 0.500000 
497 1 0.178958 0.190245 0.500000 
498 1 0.189405 0.173804 0.500000 
499 1 0.199015 0.191015 0.500000 
500 1 0.209445 0.174574 0.500000 
501 1 0.219065 0.191828 0.500000 
502 1 0.229477 0.175412 0.500000 
503 1 0.249511 0.176210 0.500000 
504 1 0.269549 0.176991 0.500000 
505 1 0.289551 0.177810 0.500000 
506 1 0.309541 0.178639 0.500000 
507 1 0.329538 0.179439 0.500000 
508 1 0.349491 0.180196 0.500000 
509 1 0.369451 0.181023 0.500000 
510 1 0.389400 0.181883 0.500000 
511 1 0.409314 0.182708 0.500000 
512 1 0.429260 0.183512 0.500000 
513 1 0.449189 0.184287 0.500000 
514 1 0.469097 0.185084 0.500000 
515 1 0.489012 0.185820 0.500000 
516 1 0.508930 0.186535 0.500000 
517 1 0.528816 0.187222 0.500000 
518 1 0.548728 0.187795 0.500000 
519 1 0.568671 0.188342 0.500000 
520 1 0.588639 0.188855 0.500000 
521 1 0.598942 0.172043 0.500000 
522 1 0.608600 0.189286 0.500000 
523 1 0.618910 0.172501 0.500000 
524 1 0.628580 0.189765 0.500000 
525 1 0.638868 0.172977 0.500000 
526 1 0.648580 0.190240 0.500000 
527 1 0.658852 0.173422 0.500000 
528 1 0.668544 0.190688 0.500000 
529 1 0.678830 0.173871 0.500000 
530 1 0.688508 0.191128 0.500000 
531 1 0.698815 0.174306 0.500000 
532 1 0.718780 0.174692 0.500000 
533 1 0.738701 0.175000 0.500000 
534 1 0.758634 0.175326 0.500000 
535 1 0.778561 0.175595 0.500000 
536 1 0.798504 0.175839 0.500000 
537 1 0.818477 0.176143 0.500000 
538 1 0.838435 0.176388 0.500000 
539 1 0.858358 0.176616 0.500000 
540 1 0.878302 0.176842 0.500000 
541 1 0.898246 0.177082 0.500000 
542 1 0.918233 0.177235 0.500000 
543 1 0.938228 0.177356 0.500000 
544 1 0.958249 0.177440 0.500000 
545 1 0.978251 0.177553 0.500000 
546 1 0.998258 0.177659 0.500000 
547 1 0.008083 0.201103 0.500000 
548 1 0.028113 0.201727 0.500000 
549 1 0.048147 0.202367 0.500000 
550 1 0.068185 0.203017 0.500000 
551 1 0.088230 0.203632 0.500000 
552 1 0.108288 0.204298 0.500000 
553 1 0.128344 0.205063 0.500000 
554 1 0.148413 0.205847 0.500000 
555 1 0.168505 0.206637 0.500000 
556 1 0.188594 0.207428 0.500000 
557 1 0.208672 0.208229 0.500000 
558 1 0.239111 0.192642 0.500000 
559 1 0.228732 0.209065 0.500000 
560 1 0.259145 0.193443 0.500000 
561 1 0.248758 0.209888 0.500000 
562 1 0.279141 0.194288 0.500000 
563 1 0.268765 0.210758 0.500000 
564 1 0.299143 0.195130 0.500000 
565 1 0.288783 0.211610 0.500000 
566 1 0.319161 0.195924 0.500000 
567 1 0.339140 0.196722 0.500000 
568 1 0.359076 0.197538 0.500000 
569 1 0.379019 0.198406 0.500000 
570 1 0.398983 0.199266 0.500000 
571 1 0.418931 0.200086 0.500000 
572 1 0.438878 0.200913 0.500000 
573 1 0.458816 0.201735 0.500000 
574 1 0.478746 0.202498 0.500000 
575 1 0.498663 0.203262 0.500000 
576 1 0.518580 0.203996 0.500000 
577 1 0.538518 0.204584 0.500000 
578 1 0.558456 0.205145 0.500000 
579 1 0.578422 0.205658 0.500000 
580 1 0.598391 0.206131 0.500000 
581 1 0.618318 0.206583 0.500000 
582 1 0.638289 0.207059 0.500000 
583 1 0.658295 0.207519 0.500000 
584 1 0.678280 0.207962 0.500000 
585 1 0.708477 0.191537 0.500000 
586 1 0.698232 0.208391 0.500000 
587 1 0.728442 0.191892 0.500000 
588 1 0.718150 0.208771 0.500000 
589 1 0.748388 0.192186 0.500000 
590 1 0.738099 0.209112 0.500000 
591 1 0.768324 0.192500 0.500000 
592 1 0.758039 0.209387 0.500000 
593 1 0.788250 0.192753 0.500000 
594 1 0.777994 0.209671 0.500000 
595 1 0.808199 0.192984 0.500000 
596 1 0.797926 0.209926 0.500000 
597 1 0.828172 0.193283 0.500000 
598 1 0.817872 0.210157 0.500000 
599 1 0.848133 0.193552 0.500000 
600 1 0.837876 0.210434 0.500000 
601 1 0.868090 0.193754 0.500000 
602 1 0.857863 0.210683 0.500000 
603 1 0.888045 0.194019 0.500000 
604 1 0.877822 0.210905 0.500000 
605 1 0.908008 0.194197 0.500000 
606 1 0.897836 0.211143 0.500000 
607 1 0.927995 0.194322 0.500000 
608 1 0.917827 0.211274 0.500000 
609 1 0.948021 0.194385 0.500000 
610 1 0.937824 0.211352 0.500000 
611 1 0.957807 0.211443 0.500000 
612 1 0.968031 0.194496 0.500000 
613 1 0.977825 0.211543 0.500000 
614 1 0.988043 0.194599 0.500000 
615 1 0.997847 0.211634 0.500000 
616 1 0.017654 0.218157 0.500000 
617 1 0.037684 0.218790 0.500000 
618 1 0.057718 0.219436 0.500000 
619 1 0.077756 0.220075 0.500000 
620 1 0.097803 0.220714 0.500000 
621 1 0.117855 0.221435 0.500000 
622 1 0.137930 0.222226 0.500000 
623 1 0.158030 0.223002 0.500000 
624 1 0.178124 0.223808 0.500000 
625 1 0.198210 0.224611 0.500000 
626 1 0.218286 0.225445 0.500000 
627 1 0.238348 0.226303 0.500000 
628 1 0.258385 0.227187 0.500000 
629 1 0.278414 0.228055 0.500000 
630 1 0.298440 0.228892 0.500000 
631 1 0.308804 0.212419 0.500000 
632 1 0.318429 0.229742 0.500000 
633 1 0.328792 0.213250 0.500000 
634 1 0.338426 0.230607 0.500000 
635 1 0.348740 0.214082 0.500000 
636 1 0.358408 0.231453 0.500000 
637 1 0.368707 0.214931 0.500000 
638 1 0.388675 0.215782 0.500000 
639 1 0.408621 0.216642 0.500000 
640 1 0.428561 0.217515 0.500000 
641 1 0.448499 0.218348 0.500000 
642 1 0.468443 0.219154 0.500000 
643 1 0.488346 0.219958 0.500000 
644 1 0.508263 0.220733 0.500000 
645 1 0.528210 0.221383 0.500000 
646 1 0.548159 0.221970 0.500000 
647 1 0.568135 0.222493 0.500000 
648 1 0.588108 0.222962 0.500000 
649 1 0.608069 0.223432 0.500000 
650 1 0.628013 0.223888 0.500000 
651 1 0.647976 0.224351 0.500000 
652 1 0.667933 0.224820 0.500000 
653 1 0.687913 0.225236 0.500000 
654 1 0.707851 0.225661 0.500000 
655 1 0.727789 0.226007 0.500000 
656 1 0.747762 0.226337 0.500000 
657 1 0.767714 0.226575 0.500000 
658 1 0.787680 0.226878 0.500000 
659 1 0.807653 0.227100 0.500000 
660 1 0.827621 0.227323 0.500000 
661 1 0.847632 0.227588 0.500000 
662 1 0.867627 0.227818 0.500000 
663 1 0.887602 0.228033 0.500000 
664 1 0.907596 0.228218 0.500000 
665 1 0.927586 0.228320 0.500000 
666 1 0.947580 0.228392 0.500000 
667 1 0.967605 0.228489 0.500000 
668 1 0.987634 0.228577 0.500000 
669 1 0.007189 0.234587 0.500000 
670 1 0.027214 0.235215 0.500000 
671 1 0.047243 0.235854 0.500000 
672 1 0.067275 0.236508 0.500000 
673 1 0.087325 0.237135 0.500000 
674 1 0.107366 0.237822 0.500000 
675 1 0.127397 0.238566 0.500000 
676 1 0.147493 0.239347 0.500000 
677 1 0.167591 0.240155 0.500000 
678 1 0.187698 0.240979 0.500000 
679 1 0.207793 0.241800 0.500000 
680 1 0.227874 0.242667 0.500000 
681 1 0.247929 0.243581 0.500000 
682 1 0.267977 0.244474 0.500000 
683 1 0.288032 0.245317 0.500000 
684 1 0.308049 0.246200 0.500000 
685 1 0.328063 0.247063 0.500000 
686 1 0.348058 0.247967 0.500000 
687 1 0.378376 0.232338 0.500000 
688 1 0.368020 0.248871 0.500000 
689 1 0.398342 0.233209 0.500000 
690 1 0.388000 0.249771 0.500000 
691 1 0.418286 0.234099 0.500000 
692 1 0.407953 0.250683 0.500000 
693 1 0.438243 0.234967 0.500000 
694 1 0.427914 0.251558 0.500000 
695 1 0.458171 0.235780 0.500000 
696 1 0.478072 0.236637 0.500000 
697 1 0.497997 0.237430 0.500000 
698 1 0.517934 0.238135 0.500000 
699 1 0.537858 0.238752 0.500000 
700 1 0.557810 0.239304 0.500000 
701 1 0.577769 0.239813 0.500000 
702 1 0.597720 0.240263 0.500000 
703 1 0.617674 0.240742 0.500000 
704 1 0.637624 0.241177 0.500000 
705 1 0.657597 0.241682 0.500000 
706 1 0.677563 0.242111 0.500000 
707 1 0.697504 0.242527 0.500000 
708 1 0.717454 0.242872 0.500000 
709 1 0.737419 0.243209 0.500000 
710 1 0.757404 0.243542 0.500000 
711 1 0.777355 0.243819 0.500000 
712 1 0.797356 0.244062 0.500000 
713 1 0.817349 0.244264 0.500000 
714 1 0.837355 0.244485 0.500000 
715 1 0.857356 0.244752 0.500000 
716 1 0.877335 0.244976 0.500000 
717 1 0.897346 0.245135 0.500000 
718 1 0.917343 0.245288 0.500000 
719 1 0.937379 0.245352 0.500000 
720 1 0.957383 0.245436 0.500000 
721 1 0.977417 0.245522 0.500000 
722 1 0.997455 0.245600 0.500000 
723 1 0.016737 0.251640 0.500000 
724 1 0.006256 0.268068 0.500000 
725 1 0.036760 0.252274 0.500000 
726 1 0.026272 0.268696 0.500000 
727 1 0.056787 0.252921 0.500000 
728 1 0.046292 0.269335 0.500000 
729 1 0.076847 0.253572 0.500000 
730 1 0.066319 0.269991 0.500000 
731 1 0.096871 0.254232 0.500000 
732 1 0.086355 0.270661 0.500000 
733 1 0.116892 0.254957 0.500000 
734 1 0.136940 0.255678 0.500000 
735 1 0.157040 0.256479 0.500000 
736 1 0.177137 0.257308 0.500000 
737 1 0.197260 0.258141 0.500000 
738 1 0.217333 0.258997 0.500000 
739 1 0.237416 0.259930 0.500000 
740 1 0.257505 0.260867 0.500000 
741 1 0.277585 0.261731 0.500000 
742 1 0.297614 0.262623 0.500000 
743 1 0.317639 0.263512 0.500000 
744 1 0.337645 0.264436 0.500000 
745 1 0.357617 0.265381 0.500000 
746 1 0.377588 0.266294 0.500000 
747 1 0.397565 0.267224 0.500000 
748 1 0.417518 0.268136 0.500000 
749 1 0.437428 0.269081 0.500000 
750 1 0.447837 0.252437 0.500000 
751 1 0.457313 0.269990 0.500000 
752 1 0.467735 0.253302 0.500000 
753 1 0.477234 0.270828 0.500000 
754 1 0.487677 0.254120 0.500000 
755 1 0.507629 0.254873 0.500000 
756 1 0.527570 0.255529 0.500000 
757 1 0.547522 0.256109 0.500000 
758 1 0.567482 0.256657 0.500000 
759 1 0.587431 0.257146 0.500000 
760 1 0.607339 0.257608 0.500000 
761 1 0.627281 0.258057 0.500000 
762 1 0.647226 0.258473 0.500000 
763 1 0.667231 0.258983 0.500000 
764 1 0.687227 0.259414 0.500000 
765 1 0.707190 0.259768 0.500000 
766 1 0.727130 0.260111 0.500000 
767 1 0.747078 0.260437 0.500000 
768 1 0.767035 0.260771 0.500000 
769 1 0.787028 0.261007 0.500000 
770 1 0.807036 0.261225 0.500000 
771 1 0.827041 0.261428 0.500000 
772 1 0.847052 0.261656 0.500000 
773 1 0.867067 0.261919 0.500000 
774 1 0.887087 0.262093 0.500000 
775 1 0.907104 0.262237 0.500000 
776 1 0.927143 0.262314 0.500000 
777 1 0.947159 0.262387 0.500000 
778 1 0.967200 0.262468 0.500000 
779 1 0.987245 0.262544 0.500000 
780 1 0.015779 0.285121 0.500000 
781 1 0.035792 0.285753 0.500000 
782 1 0.055810 0.286400 0.500000 
783 1 0.075845 0.287076 0.500000 
784 1 0.095859 0.287722 0.500000 
785 1 0.106384 0.271339 0.500000 
786 1 0.115891 0.288449 0.500000 
787 1 0.126446 0.272081 0.500000 
788 1 0.135957 0.289203 0.500000 
789 1 0.146511 0.272823 0.500000 
790 1 0.156018 0.289989 0.500000 
791 1 0.166566 0.273639 0.500000 
792 1 0.176111 0.290771 0.500000 
793 1 0.186672 0.274450 0.500000 
794 1 0.206764 0.275333 0.500000 
795 1 0.226832 0.276227 0.500000 
796 1 0.246940 0.277185 0.500000 
797 1 0.267048 0.278090 0.500000 
798 1 0.287124 0.279022 0.500000 
799 1 0.307165 0.279944 0.500000 
800 1 0.327185 0.280873 0.500000 
801 1 0.347174 0.281856 0.500000 
802 1 0.367160 0.282783 0.500000 
803 1 0.387130 0.283743 0.500000 
804 1 0.407102 0.284701 0.500000 
805 1 0.427058 0.285680 0.500000 
806 1 0.446961 0.286668 0.500000 
807 1 0.466858 0.287541 0.500000 
808 1 0.497162 0.271640 0.500000 
809 1 0.486758 0.288386 0.500000 
810 1 0.506683 0.289104 0.500000 
811 1 0.517108 0.272334 0.500000 
812 1 0.526622 0.289759 0.500000 
813 1 0.537053 0.272948 0.500000 
814 1 0.546576 0.290348 0.500000 
815 1 0.557009 0.273496 0.500000 
816 1 0.576995 0.274004 0.500000 
817 1 0.596949 0.274495 0.500000 
818 1 0.616904 0.274928 0.500000 
819 1 0.636839 0.275379 0.500000 
820 1 0.656796 0.275800 0.500000 
821 1 0.676813 0.276287 0.500000 
822 1 0.696825 0.276671 0.500000 
823 1 0.716812 0.277045 0.500000 
824 1 0.736790 0.277368 0.500000 
825 1 0.756738 0.277693 0.500000 
826 1 0.776700 0.277955 0.500000 
827 1 0.796686 0.278172 0.500000 
828 1 0.816688 0.278381 0.500000 
829 1 0.836714 0.278598 0.500000 
830 1 0.856760 0.278797 0.500000 
831 1 0.876818 0.279025 0.500000 
832 1 0.896872 0.279189 0.500000 
833 1 0.916897 0.279287 0.500000 
834 1 0.936931 0.279360 0.500000 
835 1 0.956982 0.279417 0.500000 
836 1 0.977036 0.279488 0.500000 
837 1 0.997089 0.279555 0.500000 
838 1 0.005284 0.301547 0.500000 
839 1 0.025288 0.302175 0.500000 
840 1 0.045299 0.302815 0.500000 
841 1 0.065313 0.303468 0.500000 
842 1 0.085343 0.304131 0.500000 
843 1 0.105339 0.304806 0.500000 
844 1 0.125386 0.305554 0.500000 
845 1 0.145459 0.306311 0.500000 
846 1 0.165564 0.307101 0.500000 
847 1 0.196205 0.291635 0.500000 
848 1 0.185645 0.307932 0.500000 
849 1 0.216279 0.292540 0.500000 
850 1 0.205693 0.308849 0.500000 
851 1 0.236366 0.293462 0.500000 
852 1 0.225753 0.309752 0.500000 
853 1 0.256454 0.294412 0.500000 
854 1 0.245857 0.310694 0.500000 
855 1 0.276538 0.295333 0.500000 
856 1 0.265962 0.311637 0.500000 
857 1 0.296635 0.296308 0.500000 
858 1 0.316685 0.297266 0.500000 
859 1 0.336695 0.298256 0.500000 
860 1 0.356712 0.299260 0.500000 
861 1 0.376687 0.300253 0.500000 
862 1 0.396669 0.301244 0.500000 
863 1 0.416597 0.302244 0.500000 
864 1 0.436519 0.303280 0.500000 
865 1 0.456455 0.304217 0.500000 
866 1 0.476375 0.305094 0.500000 
867 1 0.496289 0.305868 0.500000 
868 1 0.516226 0.306522 0.500000 
869 1 0.536193 0.307160 0.500000 
870 1 0.566542 0.290849 0.500000 
871 1 0.556171 0.307727 0.500000 
872 1 0.586530 0.291371 0.500000 
873 1 0.576137 0.308240 0.500000 
874 1 0.606504 0.291816 0.500000 
875 1 0.596115 0.308722 0.500000 
876 1 0.626480 0.292277 0.500000 
877 1 0.616105 0.309166 0.500000 
878 1 0.646447 0.292696 0.500000 
879 1 0.636088 0.309616 0.500000 
880 1 0.666425 0.293151 0.500000 
881 1 0.686441 0.293572 0.500000 