ITEM: TIMESTEP
4600
ITEM: NUMBER OF ATOMS
2850
ITEM: BOX BOUNDS ss ss pp
-28.0536 28.3253 
-28.9988 28.9984 
-0.5 0.5 
ITEM: ATOMS id type xs ys zs
1 1 0.012661 0.000000 0.500000 
2 1 0.032688 0.000597 0.500000 
3 1 0.052715 0.001202 0.500000 
4 1 0.072742 0.001814 0.500000 
5 1 0.092767 0.002433 0.500000 
6 1 0.112794 0.003060 0.500000 
7 1 0.132817 0.003697 0.500000 
8 1 0.152841 0.004338 0.500000 
9 1 0.172861 0.004988 0.500000 
10 1 0.192879 0.005643 0.500000 
11 1 0.212895 0.006305 0.500000 
12 1 0.232906 0.006973 0.500000 
13 1 0.252912 0.007645 0.500000 
14 1 0.272914 0.008319 0.500000 
15 1 0.292911 0.008997 0.500000 
16 1 0.312901 0.009676 0.500000 
17 1 0.332885 0.010356 0.500000 
18 1 0.352861 0.011033 0.500000 
19 1 0.372830 0.011707 0.500000 
20 1 0.392791 0.012376 0.500000 
21 1 0.022340 0.017073 0.500000 
22 1 0.042369 0.017677 0.500000 
23 1 0.062397 0.018289 0.500000 
24 1 0.082426 0.018911 0.500000 
25 1 0.102455 0.019539 0.500000 
26 1 0.122484 0.020177 0.500000 
27 1 0.142511 0.020822 0.500000 
28 1 0.162536 0.021475 0.500000 
29 1 0.182559 0.022136 0.500000 
30 1 0.202579 0.022803 0.500000 
31 1 0.222596 0.023475 0.500000 
32 1 0.242610 0.024155 0.500000 
33 1 0.262618 0.024839 0.500000 
34 1 0.282622 0.025527 0.500000 
35 1 0.302619 0.026217 0.500000 
36 1 0.322610 0.026908 0.500000 
37 1 0.342593 0.027600 0.500000 
38 1 0.362570 0.028289 0.500000 
39 1 0.382537 0.028974 0.500000 
40 1 0.402497 0.029655 0.500000 
41 1 0.412744 0.013039 0.500000 
42 1 0.422448 0.030326 0.500000 
43 1 0.432688 0.013694 0.500000 
44 1 0.442390 0.030989 0.500000 
45 1 0.452624 0.014337 0.500000 
46 1 0.462324 0.031639 0.500000 
47 1 0.472553 0.014968 0.500000 
48 1 0.482250 0.032276 0.500000 
49 1 0.492474 0.015584 0.500000 
50 1 0.512388 0.016184 0.500000 
51 1 0.532295 0.016766 0.500000 
52 1 0.552198 0.017330 0.500000 
53 1 0.572095 0.017873 0.500000 
54 1 0.591989 0.018396 0.500000 
55 1 0.611880 0.018896 0.500000 
56 1 0.631769 0.019373 0.500000 
57 1 0.651657 0.019829 0.500000 
58 1 0.671546 0.020261 0.500000 
59 1 0.691436 0.020670 0.500000 
60 1 0.711328 0.021058 0.500000 
61 1 0.731222 0.021423 0.500000 
62 1 0.751120 0.021768 0.500000 
63 1 0.771021 0.022094 0.500000 
64 1 0.790927 0.022399 0.500000 
65 1 0.810837 0.022687 0.500000 
66 1 0.830751 0.022958 0.500000 
67 1 0.850671 0.023211 0.500000 
68 1 0.870595 0.023449 0.500000 
69 1 0.890525 0.023674 0.500000 
70 1 0.910459 0.023884 0.500000 
71 1 0.930398 0.024080 0.500000 
72 1 0.950341 0.024267 0.500000 
73 1 0.970290 0.024443 0.500000 
74 1 0.990243 0.024606 0.500000 
75 1 0.011983 0.033545 0.500000 
76 1 0.032014 0.034148 0.500000 
77 1 0.021650 0.050615 0.500000 
78 1 0.052044 0.034760 0.500000 
79 1 0.041680 0.051227 0.500000 
80 1 0.072075 0.035381 0.500000 
81 1 0.061715 0.051847 0.500000 
82 1 0.092107 0.036012 0.500000 
83 1 0.081754 0.052482 0.500000 
84 1 0.112138 0.036650 0.500000 
85 1 0.132168 0.037297 0.500000 
86 1 0.152197 0.037952 0.500000 
87 1 0.172226 0.038617 0.500000 
88 1 0.192251 0.039288 0.500000 
89 1 0.212274 0.039967 0.500000 
90 1 0.232293 0.040654 0.500000 
91 1 0.252309 0.041345 0.500000 
92 1 0.272318 0.042042 0.500000 
93 1 0.292324 0.042743 0.500000 
94 1 0.312323 0.043447 0.500000 
95 1 0.332314 0.044150 0.500000 
96 1 0.352297 0.044856 0.500000 
97 1 0.372273 0.045557 0.500000 
98 1 0.392240 0.046254 0.500000 
99 1 0.412198 0.046944 0.500000 
100 1 0.432147 0.047626 0.500000 
101 1 0.452087 0.048297 0.500000 
102 1 0.472018 0.048954 0.500000 
103 1 0.502167 0.032896 0.500000 
104 1 0.491940 0.049595 0.500000 
105 1 0.522078 0.033498 0.500000 
106 1 0.511855 0.050220 0.500000 
107 1 0.541983 0.034081 0.500000 
108 1 0.531762 0.050823 0.500000 
109 1 0.561882 0.034643 0.500000 
110 1 0.551663 0.051406 0.500000 
111 1 0.581777 0.035184 0.500000 
112 1 0.571560 0.051966 0.500000 
113 1 0.601668 0.035702 0.500000 
114 1 0.591452 0.052503 0.500000 
115 1 0.621558 0.036195 0.500000 
116 1 0.641446 0.036666 0.500000 
117 1 0.661334 0.037110 0.500000 
118 1 0.681223 0.037533 0.500000 
119 1 0.701115 0.037931 0.500000 
120 1 0.721007 0.038307 0.500000 
121 1 0.740905 0.038660 0.500000 
122 1 0.760806 0.038993 0.500000 
123 1 0.780711 0.039305 0.500000 
124 1 0.800620 0.039597 0.500000 
125 1 0.820536 0.039873 0.500000 
126 1 0.840456 0.040130 0.500000 
127 1 0.860382 0.040369 0.500000 
128 1 0.880312 0.040595 0.500000 
129 1 0.900248 0.040807 0.500000 
130 1 0.920188 0.041005 0.500000 
131 1 0.940134 0.041192 0.500000 
132 1 0.960084 0.041368 0.500000 
133 1 0.980040 0.041531 0.500000 
134 1 1.000000 0.041686 0.500000 
135 1 0.011275 0.067077 0.500000 
136 1 0.031308 0.067688 0.500000 
137 1 0.051342 0.068307 0.500000 
138 1 0.071376 0.068936 0.500000 
139 1 0.091426 0.069591 0.500000 
140 1 0.101791 0.053127 0.500000 
141 1 0.111469 0.070251 0.500000 
142 1 0.121827 0.053780 0.500000 
143 1 0.131508 0.070916 0.500000 
144 1 0.141861 0.054439 0.500000 
145 1 0.151543 0.071593 0.500000 
146 1 0.161893 0.055111 0.500000 
147 1 0.171578 0.072278 0.500000 
148 1 0.181922 0.055789 0.500000 
149 1 0.201948 0.056476 0.500000 
150 1 0.221970 0.057170 0.500000 
151 1 0.241985 0.057869 0.500000 
152 1 0.261998 0.058575 0.500000 
153 1 0.282003 0.059287 0.500000 
154 1 0.302002 0.060000 0.500000 
155 1 0.321996 0.060714 0.500000 
156 1 0.341980 0.061434 0.500000 
157 1 0.361955 0.062149 0.500000 
158 1 0.381926 0.062860 0.500000 
159 1 0.401888 0.063568 0.500000 
160 1 0.421838 0.064265 0.500000 
161 1 0.441779 0.064954 0.500000 
162 1 0.461712 0.065631 0.500000 
163 1 0.481638 0.066291 0.500000 
164 1 0.501556 0.066931 0.500000 
165 1 0.521467 0.067553 0.500000 
166 1 0.541371 0.068153 0.500000 
167 1 0.561272 0.068730 0.500000 
168 1 0.581170 0.069280 0.500000 
169 1 0.601066 0.069806 0.500000 
170 1 0.611341 0.053013 0.500000 
171 1 0.620961 0.070306 0.500000 
172 1 0.631230 0.053499 0.500000 
173 1 0.640857 0.070779 0.500000 
174 1 0.651117 0.053960 0.500000 
175 1 0.671006 0.054396 0.500000 
176 1 0.660752 0.071226 0.500000 
177 1 0.690897 0.054806 0.500000 
178 1 0.680650 0.071649 0.500000 
179 1 0.710789 0.055192 0.500000 
180 1 0.700550 0.072048 0.500000 
181 1 0.730685 0.055554 0.500000 
182 1 0.720452 0.072420 0.500000 
183 1 0.750586 0.055894 0.500000 
184 1 0.770490 0.056213 0.500000 
185 1 0.790400 0.056511 0.500000 
186 1 0.810316 0.056789 0.500000 
187 1 0.830238 0.057049 0.500000 
188 1 0.850164 0.057294 0.500000 
189 1 0.870095 0.057522 0.500000 
190 1 0.890032 0.057734 0.500000 
191 1 0.909975 0.057934 0.500000 
192 1 0.929922 0.058120 0.500000 
193 1 0.949875 0.058294 0.500000 
194 1 0.969833 0.058458 0.500000 
195 1 0.989796 0.058613 0.500000 
196 1 0.020924 0.084144 0.500000 
197 1 0.040959 0.084763 0.500000 
198 1 0.060994 0.085390 0.500000 
199 1 0.081045 0.086040 0.500000 
200 1 0.101093 0.086709 0.500000 
201 1 0.121139 0.087381 0.500000 
202 1 0.141181 0.088064 0.500000 
203 1 0.161219 0.088754 0.500000 
204 1 0.191608 0.072972 0.500000 
205 1 0.181254 0.089455 0.500000 
206 1 0.211633 0.073674 0.500000 
207 1 0.201285 0.090165 0.500000 
208 1 0.221309 0.090883 0.500000 
209 1 0.231653 0.074383 0.500000 
210 1 0.241329 0.091606 0.500000 
211 1 0.251667 0.075094 0.500000 
212 1 0.261340 0.092334 0.500000 
213 1 0.271677 0.075817 0.500000 
214 1 0.291679 0.076544 0.500000 
215 1 0.311673 0.077267 0.500000 
216 1 0.331659 0.078000 0.500000 
217 1 0.351639 0.078731 0.500000 
218 1 0.371612 0.079455 0.500000 
219 1 0.391576 0.080179 0.500000 
220 1 0.411529 0.080895 0.500000 
221 1 0.431473 0.081601 0.500000 
222 1 0.451408 0.082298 0.500000 
223 1 0.471335 0.082976 0.500000 
224 1 0.491256 0.083635 0.500000 
225 1 0.511171 0.084275 0.500000 
226 1 0.531080 0.084895 0.500000 
227 1 0.550986 0.085487 0.500000 
228 1 0.570890 0.086055 0.500000 
229 1 0.590791 0.086594 0.500000 
230 1 0.610690 0.087110 0.500000 
231 1 0.630590 0.087594 0.500000 
232 1 0.650490 0.088055 0.500000 
233 1 0.670393 0.088489 0.500000 
234 1 0.690299 0.088897 0.500000 
235 1 0.710207 0.089282 0.500000 
236 1 0.730117 0.089640 0.500000 
237 1 0.740357 0.072767 0.500000 
238 1 0.750030 0.089974 0.500000 
239 1 0.760267 0.073096 0.500000 
240 1 0.769949 0.090287 0.500000 
241 1 0.780181 0.073399 0.500000 
242 1 0.789873 0.090578 0.500000 
243 1 0.800100 0.073682 0.500000 
244 1 0.809801 0.090846 0.500000 
245 1 0.820024 0.073948 0.500000 
246 1 0.829733 0.091101 0.500000 
247 1 0.839953 0.074198 0.500000 
248 1 0.849670 0.091339 0.500000 
249 1 0.859887 0.074429 0.500000 
250 1 0.869610 0.091558 0.500000 
251 1 0.879827 0.074644 0.500000 
252 1 0.889555 0.091765 0.500000 
253 1 0.899770 0.074849 0.500000 
254 1 0.909504 0.091960 0.500000 
255 1 0.919719 0.075041 0.500000 
256 1 0.929456 0.092146 0.500000 
257 1 0.939670 0.075220 0.500000 
258 1 0.949407 0.092323 0.500000 
259 1 0.959621 0.075390 0.500000 
260 1 0.979588 0.075542 0.500000 
261 1 0.999557 0.075685 0.500000 
262 1 0.010532 0.100598 0.500000 
263 1 0.030566 0.101214 0.500000 
264 1 0.050602 0.101839 0.500000 
265 1 0.070640 0.102476 0.500000 
266 1 0.090698 0.103151 0.500000 
267 1 0.110751 0.103833 0.500000 
268 1 0.130799 0.104521 0.500000 
269 1 0.150843 0.105219 0.500000 
270 1 0.170883 0.105925 0.500000 
271 1 0.190919 0.106641 0.500000 
272 1 0.210948 0.107368 0.500000 
273 1 0.230973 0.108101 0.500000 
274 1 0.250991 0.108839 0.500000 
275 1 0.271003 0.109585 0.500000 
276 1 0.281347 0.093071 0.500000 
277 1 0.291008 0.110337 0.500000 
278 1 0.301347 0.093811 0.500000 
279 1 0.311004 0.111096 0.500000 
280 1 0.321337 0.094554 0.500000 
281 1 0.330992 0.111855 0.500000 
282 1 0.341319 0.095300 0.500000 
283 1 0.361295 0.096040 0.500000 
284 1 0.381261 0.096778 0.500000 
285 1 0.401219 0.097514 0.500000 
286 1 0.421167 0.098238 0.500000 
287 1 0.441104 0.098952 0.500000 
288 1 0.461035 0.099653 0.500000 
289 1 0.480959 0.100331 0.500000 
290 1 0.500876 0.100990 0.500000 
291 1 0.520786 0.101628 0.500000 
292 1 0.540696 0.102240 0.500000 
293 1 0.560604 0.102824 0.500000 
294 1 0.580510 0.103379 0.500000 
295 1 0.600413 0.103908 0.500000 
296 1 0.620317 0.104410 0.500000 
297 1 0.640221 0.104883 0.500000 
298 1 0.660129 0.105327 0.500000 
299 1 0.680038 0.105746 0.500000 
300 1 0.699950 0.106141 0.500000 
301 1 0.719866 0.106510 0.500000 
302 1 0.739786 0.106853 0.500000 
303 1 0.759709 0.107173 0.500000 
304 1 0.779639 0.107471 0.500000 
305 1 0.799571 0.107748 0.500000 
306 1 0.819506 0.108005 0.500000 
307 1 0.839446 0.108247 0.500000 
308 1 0.859390 0.108474 0.500000 
309 1 0.879338 0.108684 0.500000 
310 1 0.899289 0.108882 0.500000 
311 1 0.919243 0.109070 0.500000 
312 1 0.939199 0.109250 0.500000 
313 1 0.969375 0.092475 0.500000 
314 1 0.959160 0.109410 0.500000 
315 1 0.989349 0.092617 0.500000 
316 1 0.979136 0.109550 0.500000 
317 1 0.999117 0.109681 0.500000 
318 1 0.020165 0.117663 0.500000 
319 1 0.040201 0.118287 0.500000 
320 1 0.060239 0.118920 0.500000 
321 1 0.080294 0.119583 0.500000 
322 1 0.100349 0.120270 0.500000 
323 1 0.120401 0.120964 0.500000 
324 1 0.140452 0.121669 0.500000 
325 1 0.160499 0.122383 0.500000 
326 1 0.180540 0.123104 0.500000 
327 1 0.200577 0.123838 0.500000 
328 1 0.220607 0.124581 0.500000 
329 1 0.240631 0.125330 0.500000 
330 1 0.260650 0.126086 0.500000 
331 1 0.280660 0.126849 0.500000 
332 1 0.300663 0.127620 0.500000 
333 1 0.320658 0.128394 0.500000 
334 1 0.340644 0.129168 0.500000 
335 1 0.350971 0.112611 0.500000 
336 1 0.360619 0.129938 0.500000 
337 1 0.370942 0.113366 0.500000 
338 1 0.380585 0.130707 0.500000 
339 1 0.390902 0.114117 0.500000 
340 1 0.400540 0.131472 0.500000 
341 1 0.410856 0.114862 0.500000 
342 1 0.420487 0.132228 0.500000 
343 1 0.430798 0.115596 0.500000 
344 1 0.450732 0.116314 0.500000 
345 1 0.470660 0.117018 0.500000 
346 1 0.490580 0.117696 0.500000 
347 1 0.510493 0.118355 0.500000 
348 1 0.530404 0.118986 0.500000 
349 1 0.550313 0.119589 0.500000 
350 1 0.570221 0.120160 0.500000 
351 1 0.590128 0.120704 0.500000 
352 1 0.610036 0.121221 0.500000 
353 1 0.629946 0.121709 0.500000 
354 1 0.649858 0.122165 0.500000 
355 1 0.669771 0.122596 0.500000 
356 1 0.689686 0.123000 0.500000 
357 1 0.709606 0.123379 0.500000 
358 1 0.729532 0.123730 0.500000 
359 1 0.749461 0.124060 0.500000 
360 1 0.769393 0.124365 0.500000 
361 1 0.789328 0.124649 0.500000 
362 1 0.809267 0.124912 0.500000 
363 1 0.829211 0.125157 0.500000 
364 1 0.849159 0.125387 0.500000 
365 1 0.869110 0.125603 0.500000 
366 1 0.889064 0.125805 0.500000 
367 1 0.909022 0.125993 0.500000 
368 1 0.928981 0.126176 0.500000 
369 1 0.948940 0.126349 0.500000 
370 1 0.968919 0.126487 0.500000 
371 1 0.988905 0.126616 0.500000 
372 1 0.009754 0.134110 0.500000 
373 1 0.029790 0.134729 0.500000 
374 1 0.019367 0.151171 0.500000 
375 1 0.049825 0.135360 0.500000 
376 1 0.039403 0.151799 0.500000 
377 1 0.069865 0.136003 0.500000 
378 1 0.089931 0.136697 0.500000 
379 1 0.109990 0.137396 0.500000 
380 1 0.130045 0.138104 0.500000 
381 1 0.150097 0.138824 0.500000 
382 1 0.170146 0.139554 0.500000 
383 1 0.190187 0.140293 0.500000 
384 1 0.210224 0.141045 0.500000 
385 1 0.230256 0.141805 0.500000 
386 1 0.250282 0.142571 0.500000 
387 1 0.270301 0.143348 0.500000 
388 1 0.290309 0.144129 0.500000 
389 1 0.310310 0.144916 0.500000 
390 1 0.330303 0.145705 0.500000 
391 1 0.350285 0.146497 0.500000 
392 1 0.370257 0.147281 0.500000 
393 1 0.390217 0.148067 0.500000 
394 1 0.410170 0.148845 0.500000 
395 1 0.440426 0.132968 0.500000 
396 1 0.430114 0.149609 0.500000 
397 1 0.460356 0.133693 0.500000 
398 1 0.450049 0.150356 0.500000 
399 1 0.480280 0.134394 0.500000 
400 1 0.469977 0.151083 0.500000 
401 1 0.500197 0.135073 0.500000 
402 1 0.489896 0.151783 0.500000 
403 1 0.520109 0.135726 0.500000 
404 1 0.540021 0.136347 0.500000 
405 1 0.559932 0.136938 0.500000 
406 1 0.579842 0.137498 0.500000 
407 1 0.599753 0.138029 0.500000 
408 1 0.619666 0.138532 0.500000 
409 1 0.639582 0.139003 0.500000 
410 1 0.659498 0.139446 0.500000 
411 1 0.679417 0.139861 0.500000 
412 1 0.699341 0.140247 0.500000 
413 1 0.719270 0.140608 0.500000 
414 1 0.739202 0.140945 0.500000 
415 1 0.759139 0.141260 0.500000 
416 1 0.779078 0.141551 0.500000 
417 1 0.799022 0.141820 0.500000 
418 1 0.818970 0.142068 0.500000 
419 1 0.838921 0.142303 0.500000 
420 1 0.858877 0.142521 0.500000 
421 1 0.878836 0.142727 0.500000 
422 1 0.898799 0.142919 0.500000 
423 1 0.918762 0.143101 0.500000 
424 1 0.938729 0.143275 0.500000 
425 1 0.958701 0.143428 0.500000 
426 1 0.978689 0.143555 0.500000 
427 1 0.998682 0.143674 0.500000 
428 1 0.008938 0.167610 0.500000 
429 1 0.028972 0.168234 0.500000 
430 1 0.049008 0.168868 0.500000 
431 1 0.059442 0.152437 0.500000 
432 1 0.069047 0.169517 0.500000 
433 1 0.079500 0.153111 0.500000 
434 1 0.089117 0.170224 0.500000 
435 1 0.099562 0.153816 0.500000 
436 1 0.109182 0.170943 0.500000 
437 1 0.119621 0.154529 0.500000 
438 1 0.139677 0.155252 0.500000 
439 1 0.129244 0.171671 0.500000 
440 1 0.159732 0.155987 0.500000 
441 1 0.179781 0.156736 0.500000 
442 1 0.199825 0.157492 0.500000 
443 1 0.219866 0.158262 0.500000 
444 1 0.239900 0.159040 0.500000 
445 1 0.259926 0.159826 0.500000 
446 1 0.279944 0.160623 0.500000 
447 1 0.299952 0.161422 0.500000 
448 1 0.319952 0.162226 0.500000 
449 1 0.339943 0.163036 0.500000 
450 1 0.359923 0.163841 0.500000 
451 1 0.379890 0.164646 0.500000 
452 1 0.399847 0.165447 0.500000 
453 1 0.419795 0.166234 0.500000 
454 1 0.439734 0.167006 0.500000 
455 1 0.459666 0.167757 0.500000 
456 1 0.479591 0.168485 0.500000 
457 1 0.499508 0.169184 0.500000 
458 1 0.509812 0.152459 0.500000 
459 1 0.519423 0.169852 0.500000 
460 1 0.529724 0.153101 0.500000 
461 1 0.539336 0.170482 0.500000 
462 1 0.549636 0.153712 0.500000 
463 1 0.559250 0.171080 0.500000 
464 1 0.569549 0.154290 0.500000 
465 1 0.579167 0.171641 0.500000 
466 1 0.589462 0.154836 0.500000 
467 1 0.609377 0.155353 0.500000 
468 1 0.629295 0.155839 0.500000 
469 1 0.649217 0.156296 0.500000 
470 1 0.669141 0.156722 0.500000 
471 1 0.689070 0.157116 0.500000 
472 1 0.709002 0.157485 0.500000 
473 1 0.728937 0.157831 0.500000 
474 1 0.748878 0.158152 0.500000 
475 1 0.768823 0.158453 0.500000 
476 1 0.788772 0.158727 0.500000 
477 1 0.808726 0.158981 0.500000 
478 1 0.828681 0.159220 0.500000 
479 1 0.848640 0.159442 0.500000 
480 1 0.868603 0.159649 0.500000 
481 1 0.888569 0.159843 0.500000 
482 1 0.908538 0.160028 0.500000 
483 1 0.928508 0.160202 0.500000 
484 1 0.948477 0.160370 0.500000 
485 1 0.968470 0.160496 0.500000 
486 1 0.988467 0.160611 0.500000 
487 1 0.018532 0.184668 0.500000 
488 1 0.038566 0.185299 0.500000 
489 1 0.058602 0.185942 0.500000 
490 1 0.078662 0.186625 0.500000 
491 1 0.098727 0.187345 0.500000 
492 1 0.118792 0.188077 0.500000 
493 1 0.138857 0.188817 0.500000 
494 1 0.149304 0.172407 0.500000 
495 1 0.158918 0.189572 0.500000 
496 1 0.169358 0.173162 0.500000 
497 1 0.178976 0.190341 0.500000 
498 1 0.189411 0.173926 0.500000 
499 1 0.199031 0.191123 0.500000 
500 1 0.209459 0.174701 0.500000 
501 1 0.219080 0.191919 0.500000 
502 1 0.229500 0.175489 0.500000 
503 1 0.249534 0.176286 0.500000 
504 1 0.269561 0.177093 0.500000 
505 1 0.289580 0.177909 0.500000 
506 1 0.309588 0.178728 0.500000 
507 1 0.329587 0.179555 0.500000 
508 1 0.349577 0.180382 0.500000 
509 1 0.369553 0.181208 0.500000 
510 1 0.389516 0.182032 0.500000 
511 1 0.409469 0.182844 0.500000 
512 1 0.429412 0.183643 0.500000 
513 1 0.449348 0.184420 0.500000 
514 1 0.469275 0.185175 0.500000 
515 1 0.489196 0.185899 0.500000 
516 1 0.509113 0.186592 0.500000 
517 1 0.529030 0.187248 0.500000 
518 1 0.548945 0.187866 0.500000 
519 1 0.568862 0.188447 0.500000 
520 1 0.588781 0.188994 0.500000 
521 1 0.599084 0.172174 0.500000 
522 1 0.608704 0.189509 0.500000 
523 1 0.619002 0.172675 0.500000 
524 1 0.628631 0.189990 0.500000 
525 1 0.638926 0.173142 0.500000 
526 1 0.648563 0.190440 0.500000 
527 1 0.658855 0.173582 0.500000 
528 1 0.668500 0.190857 0.500000 
529 1 0.678790 0.173985 0.500000 
530 1 0.688439 0.191245 0.500000 
531 1 0.698725 0.174363 0.500000 
532 1 0.718665 0.174718 0.500000 
533 1 0.738610 0.175047 0.500000 
534 1 0.758559 0.175353 0.500000 
535 1 0.778513 0.175636 0.500000 
536 1 0.798470 0.175893 0.500000 
537 1 0.818431 0.176137 0.500000 
538 1 0.838395 0.176363 0.500000 
539 1 0.858363 0.176573 0.500000 
540 1 0.878334 0.176769 0.500000 
541 1 0.898307 0.176954 0.500000 
542 1 0.918284 0.177130 0.500000 
543 1 0.938264 0.177297 0.500000 
544 1 0.958249 0.177440 0.500000 
545 1 0.978251 0.177553 0.500000 
546 1 0.998258 0.177659 0.500000 
547 1 0.008083 0.201103 0.500000 
548 1 0.028113 0.201727 0.500000 
549 1 0.048147 0.202367 0.500000 
550 1 0.068185 0.203017 0.500000 
551 1 0.088255 0.203738 0.500000 
552 1 0.108322 0.204471 0.500000 
553 1 0.128391 0.205215 0.500000 
554 1 0.148458 0.205971 0.500000 
555 1 0.168524 0.206743 0.500000 
556 1 0.188585 0.207530 0.500000 
557 1 0.208641 0.208333 0.500000 
558 1 0.239125 0.192726 0.500000 
559 1 0.228695 0.209147 0.500000 
560 1 0.259163 0.193545 0.500000 
561 1 0.248742 0.209976 0.500000 
562 1 0.279191 0.194374 0.500000 
563 1 0.268780 0.210819 0.500000 
564 1 0.299210 0.195212 0.500000 
565 1 0.288810 0.211671 0.500000 
566 1 0.319217 0.196054 0.500000 
567 1 0.339215 0.196901 0.500000 
568 1 0.359201 0.197751 0.500000 
569 1 0.379173 0.198598 0.500000 
570 1 0.399132 0.199435 0.500000 
571 1 0.419081 0.200261 0.500000 
572 1 0.439022 0.201067 0.500000 
573 1 0.458953 0.201852 0.500000 
574 1 0.478878 0.202603 0.500000 
575 1 0.498796 0.203324 0.500000 
576 1 0.518714 0.204005 0.500000 
577 1 0.538632 0.204649 0.500000 
578 1 0.558550 0.205253 0.500000 
579 1 0.578471 0.205816 0.500000 
580 1 0.598395 0.206345 0.500000 
581 1 0.618324 0.206838 0.500000 
582 1 0.638259 0.207300 0.500000 
583 1 0.658200 0.207728 0.500000 
584 1 0.678146 0.208128 0.500000 
585 1 0.708383 0.191605 0.500000 
586 1 0.698095 0.208496 0.500000 
587 1 0.728333 0.191942 0.500000 
588 1 0.718048 0.208838 0.500000 
589 1 0.748288 0.192254 0.500000 
590 1 0.738008 0.209158 0.500000 
591 1 0.768247 0.192544 0.500000 
592 1 0.757971 0.209453 0.500000 
593 1 0.788211 0.192809 0.500000 
594 1 0.777940 0.209723 0.500000 
595 1 0.808176 0.193055 0.500000 
596 1 0.797914 0.209974 0.500000 
597 1 0.828144 0.193285 0.500000 
598 1 0.817890 0.210208 0.500000 
599 1 0.848118 0.193498 0.500000 
600 1 0.837869 0.210422 0.500000 
601 1 0.868094 0.193696 0.500000 
602 1 0.857851 0.210624 0.500000 
603 1 0.888074 0.193881 0.500000 
604 1 0.877836 0.210810 0.500000 
605 1 0.908055 0.194058 0.500000 
606 1 0.897824 0.210985 0.500000 
607 1 0.928038 0.194225 0.500000 
608 1 0.917813 0.211153 0.500000 
609 1 0.948021 0.194385 0.500000 
610 1 0.937807 0.211313 0.500000 
611 1 0.957807 0.211443 0.500000 
612 1 0.968031 0.194496 0.500000 
613 1 0.977825 0.211543 0.500000 
614 1 0.988043 0.194599 0.500000 
615 1 0.997847 0.211634 0.500000 
616 1 0.017654 0.218157 0.500000 
617 1 0.037684 0.218790 0.500000 
618 1 0.057718 0.219436 0.500000 
619 1 0.077777 0.220126 0.500000 
620 1 0.097841 0.220858 0.500000 
621 1 0.117909 0.221601 0.500000 
622 1 0.137980 0.222359 0.500000 
623 1 0.158050 0.223132 0.500000 
624 1 0.178118 0.223921 0.500000 
625 1 0.198181 0.224729 0.500000 
626 1 0.218242 0.225549 0.500000 
627 1 0.238298 0.226388 0.500000 
628 1 0.258347 0.227242 0.500000 
629 1 0.278388 0.228108 0.500000 
630 1 0.298417 0.228987 0.500000 
631 1 0.308829 0.212533 0.500000 
632 1 0.318437 0.229869 0.500000 
633 1 0.328836 0.213397 0.500000 
634 1 0.338443 0.230763 0.500000 
635 1 0.348830 0.214269 0.500000 
636 1 0.358438 0.231659 0.500000 
637 1 0.368814 0.215140 0.500000 
638 1 0.388784 0.216005 0.500000 
639 1 0.408739 0.216860 0.500000 
640 1 0.428685 0.217695 0.500000 
641 1 0.448621 0.218514 0.500000 
642 1 0.468550 0.219296 0.500000 
643 1 0.488471 0.220046 0.500000 
644 1 0.508391 0.220757 0.500000 
645 1 0.528309 0.221426 0.500000 
646 1 0.548229 0.222053 0.500000 
647 1 0.568154 0.222637 0.500000 
648 1 0.588080 0.223181 0.500000 
649 1 0.608012 0.223690 0.500000 
650 1 0.627949 0.224162 0.500000 
651 1 0.647893 0.224602 0.500000 
652 1 0.667843 0.225008 0.500000 
653 1 0.687798 0.225388 0.500000 
654 1 0.707757 0.225737 0.500000 
655 1 0.727722 0.226061 0.500000 
656 1 0.747692 0.226363 0.500000 
657 1 0.767667 0.226640 0.500000 
658 1 0.787646 0.226894 0.500000 
659 1 0.807628 0.227130 0.500000 
660 1 0.827614 0.227349 0.500000 
661 1 0.847601 0.227553 0.500000 
662 1 0.867593 0.227741 0.500000 
663 1 0.887588 0.227915 0.500000 
664 1 0.907583 0.228081 0.500000 
665 1 0.927581 0.228240 0.500000 
666 1 0.947580 0.228392 0.500000 
667 1 0.967605 0.228489 0.500000 
668 1 0.987634 0.228577 0.500000 
669 1 0.007189 0.234587 0.500000 
670 1 0.027214 0.235215 0.500000 
671 1 0.047243 0.235854 0.500000 
672 1 0.067275 0.236508 0.500000 
673 1 0.087343 0.237239 0.500000 
674 1 0.107414 0.237979 0.500000 
675 1 0.127483 0.238736 0.500000 
676 1 0.147557 0.239509 0.500000 
677 1 0.167631 0.240299 0.500000 
678 1 0.187701 0.241109 0.500000 
679 1 0.207770 0.241934 0.500000 
680 1 0.227834 0.242778 0.500000 
681 1 0.247892 0.243642 0.500000 
682 1 0.267946 0.244521 0.500000 
683 1 0.287988 0.245415 0.500000 
684 1 0.308021 0.246317 0.500000 
685 1 0.328039 0.247231 0.500000 
686 1 0.348045 0.248150 0.500000 
687 1 0.378418 0.232550 0.500000 
688 1 0.368038 0.249072 0.500000 
689 1 0.398383 0.233437 0.500000 
690 1 0.388014 0.249989 0.500000 
691 1 0.418336 0.234305 0.500000 
692 1 0.407977 0.250893 0.500000 
693 1 0.438276 0.235155 0.500000 
694 1 0.427922 0.251777 0.500000 
695 1 0.458210 0.235974 0.500000 
696 1 0.478135 0.236757 0.500000 
697 1 0.498056 0.237498 0.500000 
698 1 0.517978 0.238197 0.500000 
699 1 0.537900 0.238849 0.500000 
700 1 0.557826 0.239454 0.500000 
701 1 0.577756 0.240018 0.500000 
702 1 0.597692 0.240541 0.500000 
703 1 0.617634 0.241025 0.500000 
704 1 0.637581 0.241478 0.500000 
705 1 0.657535 0.241895 0.500000 
706 1 0.677494 0.242280 0.500000 
707 1 0.697461 0.242638 0.500000 
708 1 0.717431 0.242968 0.500000 
709 1 0.737406 0.243274 0.500000 
710 1 0.757388 0.243556 0.500000 
711 1 0.777374 0.243816 0.500000 
712 1 0.797362 0.244055 0.500000 
713 1 0.817356 0.244277 0.500000 
714 1 0.837352 0.244482 0.500000 
715 1 0.857350 0.244671 0.500000 
716 1 0.877350 0.244846 0.500000 
717 1 0.897352 0.245011 0.500000 
718 1 0.917358 0.245168 0.500000 
719 1 0.937369 0.245317 0.500000 
720 1 0.957383 0.245436 0.500000 
721 1 0.977417 0.245522 0.500000 
722 1 0.997455 0.245600 0.500000 
723 1 0.016737 0.251640 0.500000 
724 1 0.006256 0.268068 0.500000 
725 1 0.036760 0.252274 0.500000 
726 1 0.026272 0.268696 0.500000 
727 1 0.056787 0.252921 0.500000 
728 1 0.046292 0.269335 0.500000 
729 1 0.076842 0.253616 0.500000 
730 1 0.066319 0.269991 0.500000 
731 1 0.096905 0.254352 0.500000 
732 1 0.086384 0.270724 0.500000 
733 1 0.116974 0.255106 0.500000 
734 1 0.137047 0.255876 0.500000 
735 1 0.157122 0.256665 0.500000 
736 1 0.177196 0.257474 0.500000 
737 1 0.197272 0.258301 0.500000 
738 1 0.217346 0.259150 0.500000 
739 1 0.237413 0.260021 0.500000 
740 1 0.257476 0.260909 0.500000 
741 1 0.277532 0.261818 0.500000 
742 1 0.297578 0.262737 0.500000 
743 1 0.317610 0.263671 0.500000 
744 1 0.337628 0.264614 0.500000 
745 1 0.357632 0.265562 0.500000 
746 1 0.377621 0.266513 0.500000 
747 1 0.397594 0.267451 0.500000 
748 1 0.417550 0.268378 0.500000 
749 1 0.437491 0.269274 0.500000 
750 1 0.447859 0.252633 0.500000 
751 1 0.457423 0.270138 0.500000 
752 1 0.467788 0.253456 0.500000 
753 1 0.477350 0.270955 0.500000 
754 1 0.487711 0.254231 0.500000 
755 1 0.507632 0.254960 0.500000 
756 1 0.527558 0.255640 0.500000 
757 1 0.547486 0.256269 0.500000 
758 1 0.567418 0.256852 0.500000 
759 1 0.587359 0.257392 0.500000 
760 1 0.607305 0.257891 0.500000 
761 1 0.627256 0.258355 0.500000 
762 1 0.647216 0.258781 0.500000 
763 1 0.667183 0.259177 0.500000 
764 1 0.687155 0.259540 0.500000 
765 1 0.707132 0.259878 0.500000 
766 1 0.727115 0.260187 0.500000 
767 1 0.747104 0.260473 0.500000 
768 1 0.767097 0.260738 0.500000 
769 1 0.787093 0.260982 0.500000 
770 1 0.807093 0.261206 0.500000 
771 1 0.827097 0.261413 0.500000 
772 1 0.847101 0.261603 0.500000 
773 1 0.867109 0.261780 0.500000 
774 1 0.887117 0.261945 0.500000 
775 1 0.907130 0.262099 0.500000 
776 1 0.927146 0.262243 0.500000 
777 1 0.947159 0.262387 0.500000 
778 1 0.967200 0.262468 0.500000 
779 1 0.987245 0.262544 0.500000 
780 1 0.015779 0.285121 0.500000 
781 1 0.035792 0.285753 0.500000 
782 1 0.055810 0.286400 0.500000 
783 1 0.075859 0.287095 0.500000 
784 1 0.095918 0.287836 0.500000 
785 1 0.106450 0.271472 0.500000 
786 1 0.115984 0.288594 0.500000 
787 1 0.126521 0.272236 0.500000 
788 1 0.136053 0.289370 0.500000 
789 1 0.146595 0.273021 0.500000 
790 1 0.156129 0.290171 0.500000 
791 1 0.166671 0.273827 0.500000 
792 1 0.176207 0.290993 0.500000 
793 1 0.186750 0.274653 0.500000 
794 1 0.206829 0.275503 0.500000 
795 1 0.226905 0.276377 0.500000 
796 1 0.246978 0.277274 0.500000 
797 1 0.267045 0.278192 0.500000 
798 1 0.287106 0.279128 0.500000 
799 1 0.307155 0.280081 0.500000 
800 1 0.327189 0.281049 0.500000 
801 1 0.347207 0.282023 0.500000 
802 1 0.367209 0.283006 0.500000 
803 1 0.387195 0.283983 0.500000 
804 1 0.407160 0.284949 0.500000 
805 1 0.427112 0.285893 0.500000 
806 1 0.447048 0.286802 0.500000 
807 1 0.466977 0.287661 0.500000 
808 1 0.497274 0.271716 0.500000 
809 1 0.486906 0.288464 0.500000 
810 1 0.506832 0.289207 0.500000 
811 1 0.517200 0.272426 0.500000 
812 1 0.526765 0.289890 0.500000 
813 1 0.537131 0.273080 0.500000 
814 1 0.546704 0.290519 0.500000 
815 1 0.557067 0.273686 0.500000 
816 1 0.577012 0.274244 0.500000 
817 1 0.596964 0.274758 0.500000 
818 1 0.616922 0.275232 0.500000 
819 1 0.636887 0.275670 0.500000 
820 1 0.656860 0.276072 0.500000 
821 1 0.676841 0.276445 0.500000 
822 1 0.696827 0.276788 0.500000 
823 1 0.716819 0.277102 0.500000 
824 1 0.736815 0.277393 0.500000 
825 1 0.756814 0.277662 0.500000 
826 1 0.776819 0.277909 0.500000 
827 1 0.796827 0.278137 0.500000 
828 1 0.816838 0.278346 0.500000 
829 1 0.836851 0.278537 0.500000 
830 1 0.856865 0.278713 0.500000 
831 1 0.876882 0.278879 0.500000 
832 1 0.896901 0.279032 0.500000 
833 1 0.916925 0.279173 0.500000 
834 1 0.936950 0.279312 0.500000 
835 1 0.956982 0.279417 0.500000 
836 1 0.977036 0.279488 0.500000 
837 1 0.997089 0.279555 0.500000 
838 1 0.005284 0.301547 0.500000 
839 1 0.025288 0.302175 0.500000 
840 1 0.045299 0.302815 0.500000 
841 1 0.065313 0.303468 0.500000 
842 1 0.085370 0.304200 0.500000 
843 1 0.105430 0.304949 0.500000 
844 1 0.125495 0.305717 0.500000 
845 1 0.145566 0.306507 0.500000 
846 1 0.165643 0.307324 0.500000 
847 1 0.196289 0.291840 0.500000 
848 1 0.185723 0.308164 0.500000 
849 1 0.216370 0.292715 0.500000 
850 1 0.205806 0.309035 0.500000 
851 1 0.236449 0.293614 0.500000 
852 1 0.225892 0.309935 0.500000 
853 1 0.256529 0.294539 0.500000 
854 1 0.245978 0.310861 0.500000 
855 1 0.276603 0.295487 0.500000 
856 1 0.266063 0.311818 0.500000 
857 1 0.296666 0.296457 0.500000 
858 1 0.316716 0.297448 0.500000 
859 1 0.336752 0.298451 0.500000 
860 1 0.356769 0.299464 0.500000 
861 1 0.376769 0.300479 0.500000 
862 1 0.396748 0.301491 0.500000 
863 1 0.416710 0.302481 0.500000 
864 1 0.436652 0.303442 0.500000 
865 1 0.456586 0.304350 0.500000 
866 1 0.476516 0.305199 0.500000 
867 1 0.496446 0.305982 0.500000 
868 1 0.516380 0.306697 0.500000 
869 1 0.536321 0.307352 0.500000 
870 1 0.566652 0.291095 0.500000 
871 1 0.556273 0.307946 0.500000 
872 1 0.586609 0.291626 0.500000 
873 1 0.576236 0.308494 0.500000 
874 1 0.606574 0.292111 0.500000 
875 1 0.596208 0.308993 0.500000 
876 1 0.626548 0.292559 0.500000 
877 1 0.616192 0.309448 0.500000 
878 1 0.646529 0.292972 0.500000 
879 1 0.636183 0.309872 0.500000 
880 1 0.666517 0.293350 0.500000 
881 1 0.686513 0.293699 0.500000 