ITEM: TIMESTEP
3300
ITEM: NUMBER OF ATOMS
2850
ITEM: BOX BOUNDS ss ss pp
-28.0536 28.3253 
-28.9988 28.9984 
-0.5 0.5 
ITEM: ATOMS id type xs ys zs
1 1 0.012661 0.000000 0.500000 
2 1 0.032688 0.000597 0.500000 
3 1 0.052715 0.001202 0.500000 
4 1 0.072742 0.001814 0.500000 
5 1 0.092767 0.002433 0.500000 
6 1 0.112794 0.003060 0.500000 
7 1 0.132817 0.003697 0.500000 
8 1 0.152841 0.004338 0.500000 
9 1 0.172861 0.004988 0.500000 
10 1 0.192879 0.005643 0.500000 
11 1 0.212895 0.006305 0.500000 
12 1 0.232906 0.006973 0.500000 
13 1 0.252912 0.007645 0.500000 
14 1 0.272914 0.008319 0.500000 
15 1 0.292911 0.008997 0.500000 
16 1 0.312901 0.009676 0.500000 
17 1 0.332885 0.010356 0.500000 
18 1 0.352861 0.011033 0.500000 
19 1 0.372830 0.011707 0.500000 
20 1 0.392791 0.012376 0.500000 
21 1 0.022340 0.017073 0.500000 
22 1 0.042369 0.017677 0.500000 
23 1 0.062397 0.018289 0.500000 
24 1 0.082426 0.018911 0.500000 
25 1 0.102455 0.019539 0.500000 
26 1 0.122484 0.020177 0.500000 
27 1 0.142511 0.020822 0.500000 
28 1 0.162536 0.021475 0.500000 
29 1 0.182559 0.022136 0.500000 
30 1 0.202579 0.022803 0.500000 
31 1 0.222596 0.023475 0.500000 
32 1 0.242610 0.024155 0.500000 
33 1 0.262618 0.024839 0.500000 
34 1 0.282622 0.025527 0.500000 
35 1 0.302619 0.026217 0.500000 
36 1 0.322610 0.026908 0.500000 
37 1 0.342593 0.027600 0.500000 
38 1 0.362570 0.028289 0.500000 
39 1 0.382537 0.028974 0.500000 
40 1 0.402497 0.029655 0.500000 
41 1 0.412744 0.013039 0.500000 
42 1 0.422448 0.030326 0.500000 
43 1 0.432688 0.013694 0.500000 
44 1 0.442390 0.030989 0.500000 
45 1 0.452624 0.014337 0.500000 
46 1 0.462324 0.031639 0.500000 
47 1 0.472553 0.014968 0.500000 
48 1 0.482250 0.032276 0.500000 
49 1 0.492474 0.015584 0.500000 
50 1 0.512388 0.016184 0.500000 
51 1 0.532295 0.016766 0.500000 
52 1 0.552198 0.017330 0.500000 
53 1 0.572095 0.017873 0.500000 
54 1 0.591989 0.018396 0.500000 
55 1 0.611880 0.018896 0.500000 
56 1 0.631769 0.019373 0.500000 
57 1 0.651657 0.019829 0.500000 
58 1 0.671546 0.020261 0.500000 
59 1 0.691436 0.020670 0.500000 
60 1 0.711328 0.021058 0.500000 
61 1 0.731222 0.021423 0.500000 
62 1 0.751120 0.021768 0.500000 
63 1 0.771021 0.022094 0.500000 
64 1 0.790927 0.022399 0.500000 
65 1 0.810837 0.022687 0.500000 
66 1 0.830751 0.022958 0.500000 
67 1 0.850671 0.023211 0.500000 
68 1 0.870595 0.023449 0.500000 
69 1 0.890525 0.023674 0.500000 
70 1 0.910459 0.023884 0.500000 
71 1 0.930398 0.024080 0.500000 
72 1 0.950341 0.024267 0.500000 
73 1 0.970290 0.024443 0.500000 
74 1 0.990243 0.024606 0.500000 
75 1 0.011983 0.033545 0.500000 
76 1 0.032014 0.034148 0.500000 
77 1 0.021650 0.050615 0.500000 
78 1 0.052044 0.034760 0.500000 
79 1 0.041680 0.051227 0.500000 
80 1 0.072075 0.035381 0.500000 
81 1 0.061715 0.051847 0.500000 
82 1 0.092107 0.036012 0.500000 
83 1 0.081756 0.052473 0.500000 
84 1 0.112138 0.036650 0.500000 
85 1 0.132168 0.037297 0.500000 
86 1 0.152197 0.037952 0.500000 
87 1 0.172226 0.038617 0.500000 
88 1 0.192251 0.039288 0.500000 
89 1 0.212274 0.039967 0.500000 
90 1 0.232293 0.040654 0.500000 
91 1 0.252309 0.041345 0.500000 
92 1 0.272318 0.042042 0.500000 
93 1 0.292324 0.042743 0.500000 
94 1 0.312323 0.043447 0.500000 
95 1 0.332314 0.044150 0.500000 
96 1 0.352297 0.044856 0.500000 
97 1 0.372273 0.045557 0.500000 
98 1 0.392240 0.046254 0.500000 
99 1 0.412198 0.046944 0.500000 
100 1 0.432147 0.047626 0.500000 
101 1 0.452087 0.048297 0.500000 
102 1 0.472018 0.048954 0.500000 
103 1 0.502167 0.032896 0.500000 
104 1 0.491940 0.049595 0.500000 
105 1 0.522078 0.033498 0.500000 
106 1 0.511855 0.050220 0.500000 
107 1 0.541983 0.034081 0.500000 
108 1 0.531762 0.050823 0.500000 
109 1 0.561882 0.034643 0.500000 
110 1 0.551663 0.051406 0.500000 
111 1 0.581777 0.035184 0.500000 
112 1 0.571560 0.051966 0.500000 
113 1 0.601668 0.035702 0.500000 
114 1 0.591452 0.052503 0.500000 
115 1 0.621558 0.036195 0.500000 
116 1 0.641446 0.036666 0.500000 
117 1 0.661334 0.037110 0.500000 
118 1 0.681223 0.037533 0.500000 
119 1 0.701115 0.037931 0.500000 
120 1 0.721007 0.038307 0.500000 
121 1 0.740905 0.038660 0.500000 
122 1 0.760806 0.038993 0.500000 
123 1 0.780711 0.039305 0.500000 
124 1 0.800620 0.039597 0.500000 
125 1 0.820536 0.039873 0.500000 
126 1 0.840456 0.040130 0.500000 
127 1 0.860382 0.040369 0.500000 
128 1 0.880312 0.040595 0.500000 
129 1 0.900248 0.040807 0.500000 
130 1 0.920188 0.041005 0.500000 
131 1 0.940134 0.041192 0.500000 
132 1 0.960084 0.041368 0.500000 
133 1 0.980040 0.041531 0.500000 
134 1 1.000000 0.041686 0.500000 
135 1 0.011275 0.067077 0.500000 
136 1 0.031308 0.067688 0.500000 
137 1 0.051342 0.068307 0.500000 
138 1 0.071376 0.068936 0.500000 
139 1 0.091426 0.069579 0.500000 
140 1 0.101803 0.053128 0.500000 
141 1 0.111475 0.070261 0.500000 
142 1 0.121838 0.053785 0.500000 
143 1 0.131516 0.070922 0.500000 
144 1 0.141870 0.054442 0.500000 
145 1 0.151553 0.071596 0.500000 
146 1 0.161901 0.055115 0.500000 
147 1 0.171585 0.072295 0.500000 
148 1 0.181922 0.055797 0.500000 
149 1 0.201948 0.056471 0.500000 
150 1 0.221970 0.057173 0.500000 
151 1 0.241985 0.057877 0.500000 
152 1 0.262001 0.058580 0.500000 
153 1 0.282006 0.059293 0.500000 
154 1 0.302009 0.060002 0.500000 
155 1 0.322001 0.060725 0.500000 
156 1 0.341982 0.061436 0.500000 
157 1 0.361959 0.062148 0.500000 
158 1 0.381927 0.062861 0.500000 
159 1 0.401883 0.063573 0.500000 
160 1 0.421836 0.064263 0.500000 
161 1 0.441776 0.064956 0.500000 
162 1 0.461707 0.065638 0.500000 
163 1 0.481632 0.066292 0.500000 
164 1 0.501551 0.066934 0.500000 
165 1 0.521463 0.067559 0.500000 
166 1 0.541370 0.068152 0.500000 
167 1 0.561267 0.068733 0.500000 
168 1 0.581159 0.069290 0.500000 
169 1 0.601059 0.069816 0.500000 
170 1 0.611341 0.053013 0.500000 
171 1 0.620955 0.070315 0.500000 
172 1 0.631230 0.053499 0.500000 
173 1 0.640852 0.070787 0.500000 
174 1 0.651117 0.053960 0.500000 
175 1 0.671006 0.054396 0.500000 
176 1 0.660744 0.071243 0.500000 
177 1 0.690897 0.054806 0.500000 
178 1 0.680643 0.071658 0.500000 
179 1 0.710789 0.055192 0.500000 
180 1 0.700541 0.072056 0.500000 
181 1 0.730685 0.055554 0.500000 
182 1 0.720439 0.072430 0.500000 
183 1 0.750586 0.055894 0.500000 
184 1 0.770490 0.056213 0.500000 
185 1 0.790400 0.056511 0.500000 
186 1 0.810316 0.056789 0.500000 
187 1 0.830238 0.057049 0.500000 
188 1 0.850164 0.057294 0.500000 
189 1 0.870095 0.057522 0.500000 
190 1 0.890032 0.057734 0.500000 
191 1 0.909975 0.057934 0.500000 
192 1 0.929922 0.058120 0.500000 
193 1 0.949875 0.058294 0.500000 
194 1 0.969833 0.058458 0.500000 
195 1 0.989796 0.058613 0.500000 
196 1 0.020924 0.084144 0.500000 
197 1 0.040959 0.084763 0.500000 
198 1 0.060994 0.085390 0.500000 
199 1 0.081053 0.086040 0.500000 
200 1 0.101098 0.086711 0.500000 
201 1 0.121154 0.087393 0.500000 
202 1 0.141199 0.088071 0.500000 
203 1 0.161234 0.088771 0.500000 
204 1 0.191617 0.072971 0.500000 
205 1 0.181273 0.089467 0.500000 
206 1 0.211641 0.073676 0.500000 
207 1 0.201293 0.090171 0.500000 
208 1 0.221311 0.090900 0.500000 
209 1 0.231657 0.074395 0.500000 
210 1 0.241329 0.091613 0.500000 
211 1 0.251674 0.075100 0.500000 
212 1 0.261338 0.092346 0.500000 
213 1 0.271683 0.075831 0.500000 
214 1 0.291680 0.076547 0.500000 
215 1 0.311678 0.077276 0.500000 
216 1 0.331671 0.078014 0.500000 
217 1 0.351647 0.078736 0.500000 
218 1 0.371613 0.079458 0.500000 
219 1 0.391574 0.080192 0.500000 
220 1 0.411531 0.080899 0.500000 
221 1 0.431476 0.081606 0.500000 
222 1 0.451412 0.082303 0.500000 
223 1 0.471342 0.082981 0.500000 
224 1 0.491263 0.083641 0.500000 
225 1 0.511177 0.084282 0.500000 
226 1 0.531087 0.084896 0.500000 
227 1 0.550988 0.085495 0.500000 
228 1 0.570884 0.086071 0.500000 
229 1 0.590781 0.086607 0.500000 
230 1 0.610676 0.087125 0.500000 
231 1 0.630572 0.087609 0.500000 
232 1 0.650468 0.088078 0.500000 
233 1 0.670371 0.088510 0.500000 
234 1 0.690276 0.088914 0.500000 
235 1 0.710184 0.089303 0.500000 
236 1 0.730094 0.089660 0.500000 
237 1 0.740349 0.072778 0.500000 
238 1 0.750009 0.089989 0.500000 
239 1 0.760264 0.073100 0.500000 
240 1 0.769926 0.090302 0.500000 
241 1 0.780174 0.073407 0.500000 
242 1 0.789846 0.090597 0.500000 
243 1 0.800090 0.073696 0.500000 
244 1 0.809774 0.090869 0.500000 
245 1 0.820015 0.073963 0.500000 
246 1 0.829715 0.091128 0.500000 
247 1 0.839942 0.074215 0.500000 
248 1 0.849660 0.091361 0.500000 
249 1 0.859877 0.074436 0.500000 
250 1 0.869597 0.091571 0.500000 
251 1 0.879818 0.074649 0.500000 
252 1 0.889540 0.091778 0.500000 
253 1 0.899764 0.074858 0.500000 
254 1 0.909494 0.091977 0.500000 
255 1 0.919710 0.075043 0.500000 
256 1 0.929450 0.092154 0.500000 
257 1 0.939663 0.075219 0.500000 
258 1 0.949407 0.092323 0.500000 
259 1 0.959621 0.075390 0.500000 
260 1 0.979588 0.075542 0.500000 
261 1 0.999557 0.075685 0.500000 
262 1 0.010532 0.100598 0.500000 
263 1 0.030566 0.101214 0.500000 
264 1 0.050602 0.101839 0.500000 
265 1 0.070640 0.102476 0.500000 
266 1 0.090702 0.103158 0.500000 
267 1 0.110757 0.103838 0.500000 
268 1 0.130813 0.104533 0.500000 
269 1 0.150856 0.105236 0.500000 
270 1 0.170899 0.105939 0.500000 
271 1 0.190932 0.106658 0.500000 
272 1 0.210961 0.107384 0.500000 
273 1 0.230992 0.108117 0.500000 
274 1 0.251001 0.108856 0.500000 
275 1 0.271011 0.109609 0.500000 
276 1 0.281346 0.093091 0.500000 
277 1 0.291022 0.110356 0.500000 
278 1 0.301347 0.093815 0.500000 
279 1 0.311011 0.111107 0.500000 
280 1 0.321340 0.094563 0.500000 
281 1 0.330996 0.111861 0.500000 
282 1 0.341327 0.095315 0.500000 
283 1 0.361296 0.096051 0.500000 
284 1 0.381259 0.096788 0.500000 
285 1 0.401222 0.097523 0.500000 
286 1 0.421168 0.098249 0.500000 
287 1 0.441107 0.098960 0.500000 
288 1 0.461039 0.099657 0.500000 
289 1 0.480957 0.100339 0.500000 
290 1 0.500874 0.100995 0.500000 
291 1 0.520785 0.101633 0.500000 
292 1 0.540688 0.102243 0.500000 
293 1 0.560592 0.102838 0.500000 
294 1 0.580499 0.103400 0.500000 
295 1 0.600398 0.103931 0.500000 
296 1 0.620296 0.104430 0.500000 
297 1 0.640196 0.104900 0.500000 
298 1 0.660108 0.105357 0.500000 
299 1 0.680018 0.105774 0.500000 
300 1 0.699928 0.106166 0.500000 
301 1 0.719845 0.106543 0.500000 
302 1 0.739764 0.106882 0.500000 
303 1 0.759683 0.107197 0.500000 
304 1 0.779606 0.107497 0.500000 
305 1 0.799535 0.107779 0.500000 
306 1 0.819473 0.108035 0.500000 
307 1 0.839418 0.108279 0.500000 
308 1 0.859365 0.108499 0.500000 
309 1 0.879313 0.108705 0.500000 
310 1 0.899272 0.108903 0.500000 
311 1 0.919236 0.109086 0.500000 
312 1 0.939198 0.109261 0.500000 
313 1 0.969375 0.092475 0.500000 
314 1 0.959160 0.109410 0.500000 
315 1 0.989349 0.092617 0.500000 
316 1 0.979136 0.109550 0.500000 
317 1 0.999117 0.109681 0.500000 
318 1 0.020165 0.117663 0.500000 
319 1 0.040201 0.118287 0.500000 
320 1 0.060239 0.118920 0.500000 
321 1 0.080294 0.119586 0.500000 
322 1 0.100355 0.120273 0.500000 
323 1 0.120411 0.120971 0.500000 
324 1 0.140462 0.121686 0.500000 
325 1 0.160514 0.122393 0.500000 
326 1 0.180556 0.123121 0.500000 
327 1 0.200593 0.123852 0.500000 
328 1 0.220628 0.124593 0.500000 
329 1 0.240650 0.125355 0.500000 
330 1 0.260658 0.126108 0.500000 
331 1 0.280674 0.126868 0.500000 
332 1 0.300681 0.127641 0.500000 
333 1 0.320677 0.128406 0.500000 
334 1 0.340660 0.129175 0.500000 
335 1 0.350983 0.112628 0.500000 
336 1 0.360637 0.129959 0.500000 
337 1 0.370954 0.113380 0.500000 
338 1 0.380603 0.130726 0.500000 
339 1 0.390916 0.114129 0.500000 
340 1 0.400557 0.131496 0.500000 
341 1 0.410864 0.114882 0.500000 
342 1 0.420504 0.132248 0.500000 
343 1 0.430804 0.115611 0.500000 
344 1 0.450742 0.116324 0.500000 
345 1 0.470666 0.117032 0.500000 
346 1 0.490584 0.117709 0.500000 
347 1 0.510495 0.118361 0.500000 
348 1 0.530406 0.118993 0.500000 
349 1 0.550311 0.119596 0.500000 
350 1 0.570219 0.120179 0.500000 
351 1 0.590126 0.120731 0.500000 
352 1 0.610029 0.121250 0.500000 
353 1 0.629932 0.121734 0.500000 
354 1 0.649836 0.122192 0.500000 
355 1 0.669750 0.122632 0.500000 
356 1 0.689665 0.123035 0.500000 
357 1 0.709582 0.123417 0.500000 
358 1 0.729504 0.123778 0.500000 
359 1 0.749426 0.124099 0.500000 
360 1 0.769352 0.124399 0.500000 
361 1 0.789284 0.124687 0.500000 
362 1 0.809229 0.124946 0.500000 
363 1 0.829177 0.125196 0.500000 
364 1 0.849125 0.125423 0.500000 
365 1 0.869077 0.125635 0.500000 
366 1 0.889040 0.125826 0.500000 
367 1 0.909012 0.126014 0.500000 
368 1 0.928975 0.126189 0.500000 
369 1 0.948940 0.126349 0.500000 
370 1 0.968919 0.126487 0.500000 
371 1 0.988905 0.126616 0.500000 
372 1 0.009754 0.134110 0.500000 
373 1 0.029790 0.134729 0.500000 
374 1 0.019367 0.151171 0.500000 
375 1 0.049825 0.135360 0.500000 
376 1 0.039403 0.151799 0.500000 
377 1 0.069865 0.136003 0.500000 
378 1 0.089936 0.136694 0.500000 
379 1 0.109999 0.137396 0.500000 
380 1 0.130054 0.138115 0.500000 
381 1 0.150113 0.138831 0.500000 
382 1 0.170162 0.139568 0.500000 
383 1 0.190205 0.140310 0.500000 
384 1 0.210242 0.141051 0.500000 
385 1 0.230267 0.141823 0.500000 
386 1 0.250297 0.142597 0.500000 
387 1 0.270315 0.143363 0.500000 
388 1 0.290326 0.144148 0.500000 
389 1 0.310334 0.144936 0.500000 
390 1 0.330326 0.145720 0.500000 
391 1 0.350301 0.146510 0.500000 
392 1 0.370274 0.147306 0.500000 
393 1 0.390236 0.148095 0.500000 
394 1 0.410190 0.148871 0.500000 
395 1 0.440443 0.132979 0.500000 
396 1 0.430132 0.149625 0.500000 
397 1 0.460370 0.133713 0.500000 
398 1 0.450061 0.150373 0.500000 
399 1 0.480293 0.134413 0.500000 
400 1 0.469990 0.151103 0.500000 
401 1 0.500214 0.135089 0.500000 
402 1 0.489910 0.151800 0.500000 
403 1 0.520122 0.135736 0.500000 
404 1 0.540028 0.136360 0.500000 
405 1 0.559931 0.136953 0.500000 
406 1 0.579833 0.137525 0.500000 
407 1 0.599742 0.138063 0.500000 
408 1 0.619652 0.138569 0.500000 
409 1 0.639561 0.139040 0.500000 
410 1 0.659475 0.139485 0.500000 
411 1 0.679397 0.139903 0.500000 
412 1 0.699318 0.140295 0.500000 
413 1 0.719245 0.140661 0.500000 
414 1 0.739178 0.140999 0.500000 
415 1 0.759106 0.141305 0.500000 
416 1 0.779040 0.141595 0.500000 
417 1 0.798989 0.141863 0.500000 
418 1 0.818937 0.142112 0.500000 
419 1 0.838890 0.142347 0.500000 
420 1 0.858844 0.142562 0.500000 
421 1 0.878811 0.142758 0.500000 
422 1 0.898781 0.142935 0.500000 
423 1 0.918755 0.143122 0.500000 
424 1 0.938728 0.143280 0.500000 
425 1 0.958701 0.143428 0.500000 
426 1 0.978689 0.143555 0.500000 
427 1 0.998682 0.143674 0.500000 
428 1 0.008938 0.167610 0.500000 
429 1 0.028972 0.168234 0.500000 
430 1 0.049008 0.168868 0.500000 
431 1 0.059442 0.152437 0.500000 
432 1 0.069047 0.169517 0.500000 
433 1 0.079502 0.153108 0.500000 
434 1 0.089126 0.170223 0.500000 
435 1 0.099569 0.153810 0.500000 
436 1 0.109190 0.170945 0.500000 
437 1 0.119630 0.154534 0.500000 
438 1 0.139693 0.155258 0.500000 
439 1 0.129260 0.171676 0.500000 
440 1 0.159746 0.155999 0.500000 
441 1 0.179803 0.156751 0.500000 
442 1 0.199854 0.157504 0.500000 
443 1 0.219883 0.158278 0.500000 
444 1 0.239912 0.159056 0.500000 
445 1 0.259942 0.159847 0.500000 
446 1 0.279956 0.160644 0.500000 
447 1 0.299970 0.161442 0.500000 
448 1 0.319974 0.162248 0.500000 
449 1 0.339963 0.163054 0.500000 
450 1 0.359940 0.163861 0.500000 
451 1 0.379906 0.164674 0.500000 
452 1 0.399867 0.165475 0.500000 
453 1 0.419821 0.166259 0.500000 
454 1 0.439756 0.167029 0.500000 
455 1 0.459685 0.167777 0.500000 
456 1 0.479612 0.168509 0.500000 
457 1 0.499532 0.169202 0.500000 
458 1 0.509827 0.152475 0.500000 
459 1 0.519448 0.169873 0.500000 
460 1 0.529736 0.153119 0.500000 
461 1 0.539357 0.170506 0.500000 
462 1 0.549645 0.153730 0.500000 
463 1 0.559262 0.171111 0.500000 
464 1 0.569549 0.154322 0.500000 
465 1 0.579173 0.171688 0.500000 
466 1 0.589455 0.154874 0.500000 
467 1 0.609365 0.155395 0.500000 
468 1 0.629281 0.155888 0.500000 
469 1 0.649202 0.156341 0.500000 
470 1 0.669123 0.156764 0.500000 
471 1 0.689048 0.157170 0.500000 
472 1 0.708982 0.157545 0.500000 
473 1 0.728918 0.157892 0.500000 
474 1 0.748856 0.158211 0.500000 
475 1 0.768796 0.158507 0.500000 
476 1 0.788745 0.158784 0.500000 
477 1 0.808694 0.159037 0.500000 
478 1 0.828649 0.159268 0.500000 
479 1 0.848607 0.159490 0.500000 
480 1 0.868577 0.159687 0.500000 
481 1 0.888550 0.159875 0.500000 
482 1 0.908521 0.160047 0.500000 
483 1 0.928501 0.160216 0.500000 
484 1 0.948477 0.160370 0.500000 
485 1 0.968470 0.160496 0.500000 
486 1 0.988467 0.160611 0.500000 
487 1 0.018532 0.184668 0.500000 
488 1 0.038566 0.185299 0.500000 
489 1 0.058602 0.185942 0.500000 
490 1 0.078668 0.186627 0.500000 
491 1 0.098737 0.187354 0.500000 
492 1 0.118806 0.188082 0.500000 
493 1 0.138874 0.188831 0.500000 
494 1 0.149323 0.172424 0.500000 
495 1 0.158934 0.189597 0.500000 
496 1 0.169375 0.173177 0.500000 
497 1 0.178996 0.190354 0.500000 
498 1 0.189432 0.173935 0.500000 
499 1 0.199052 0.191143 0.500000 
500 1 0.209478 0.174721 0.500000 
501 1 0.219108 0.191938 0.500000 
502 1 0.229518 0.175503 0.500000 
503 1 0.249548 0.176301 0.500000 
504 1 0.269574 0.177122 0.500000 
505 1 0.289598 0.177931 0.500000 
506 1 0.309607 0.178751 0.500000 
507 1 0.329607 0.179577 0.500000 
508 1 0.349599 0.180404 0.500000 
509 1 0.369573 0.181238 0.500000 
510 1 0.389538 0.182055 0.500000 
511 1 0.409498 0.182866 0.500000 
512 1 0.429445 0.183670 0.500000 
513 1 0.449381 0.184448 0.500000 
514 1 0.469304 0.185203 0.500000 
515 1 0.489230 0.185928 0.500000 
516 1 0.509147 0.186615 0.500000 
517 1 0.529060 0.187277 0.500000 
518 1 0.548966 0.187904 0.500000 
519 1 0.568872 0.188492 0.500000 
520 1 0.588793 0.189047 0.500000 
521 1 0.599091 0.172220 0.500000 
522 1 0.608709 0.189570 0.500000 
523 1 0.619002 0.172729 0.500000 
524 1 0.628629 0.190058 0.500000 
525 1 0.638915 0.173197 0.500000 
526 1 0.648550 0.190506 0.500000 
527 1 0.658838 0.173636 0.500000 
528 1 0.668484 0.190930 0.500000 
529 1 0.678764 0.174045 0.500000 
530 1 0.688421 0.191323 0.500000 
531 1 0.698696 0.174428 0.500000 
532 1 0.718638 0.174788 0.500000 
533 1 0.738582 0.175112 0.500000 
534 1 0.758527 0.175416 0.500000 
535 1 0.778482 0.175699 0.500000 
536 1 0.798441 0.175965 0.500000 
537 1 0.818407 0.176194 0.500000 
538 1 0.838370 0.176413 0.500000 
539 1 0.858341 0.176614 0.500000 
540 1 0.878313 0.176808 0.500000 
541 1 0.898294 0.176985 0.500000 
542 1 0.918277 0.177148 0.500000 
543 1 0.938263 0.177303 0.500000 
544 1 0.958249 0.177440 0.500000 
545 1 0.978251 0.177553 0.500000 
546 1 0.998258 0.177659 0.500000 
547 1 0.008083 0.201103 0.500000 
548 1 0.028113 0.201727 0.500000 
549 1 0.048147 0.202367 0.500000 
550 1 0.068185 0.203017 0.500000 
551 1 0.088263 0.203746 0.500000 
552 1 0.108341 0.204484 0.500000 
553 1 0.128412 0.205225 0.500000 
554 1 0.148476 0.205995 0.500000 
555 1 0.168545 0.206762 0.500000 
556 1 0.188603 0.207550 0.500000 
557 1 0.208665 0.208351 0.500000 
558 1 0.239148 0.192743 0.500000 
559 1 0.228719 0.209174 0.500000 
560 1 0.259178 0.193570 0.500000 
561 1 0.248759 0.210005 0.500000 
562 1 0.279213 0.194397 0.500000 
563 1 0.268801 0.210840 0.500000 
564 1 0.299236 0.195239 0.500000 
565 1 0.288835 0.211697 0.500000 
566 1 0.319239 0.196079 0.500000 
567 1 0.339236 0.196921 0.500000 
568 1 0.359228 0.197779 0.500000 
569 1 0.379210 0.198624 0.500000 
570 1 0.399169 0.199456 0.500000 
571 1 0.419114 0.200285 0.500000 
572 1 0.439059 0.201098 0.500000 
573 1 0.458994 0.201891 0.500000 
574 1 0.478919 0.202643 0.500000 
575 1 0.498837 0.203361 0.500000 
576 1 0.518747 0.204040 0.500000 
577 1 0.538659 0.204688 0.500000 
578 1 0.558575 0.205305 0.500000 
579 1 0.578488 0.205871 0.500000 
580 1 0.598409 0.206420 0.500000 
581 1 0.618327 0.206917 0.500000 
582 1 0.638248 0.207381 0.500000 
583 1 0.658179 0.207808 0.500000 
584 1 0.678120 0.208216 0.500000 
585 1 0.708366 0.191682 0.500000 
586 1 0.698069 0.208581 0.500000 
587 1 0.728312 0.192019 0.500000 
588 1 0.718025 0.208926 0.500000 
589 1 0.748260 0.192325 0.500000 
590 1 0.737987 0.209243 0.500000 
591 1 0.768216 0.192612 0.500000 
592 1 0.757950 0.209531 0.500000 
593 1 0.788179 0.192883 0.500000 
594 1 0.777916 0.209804 0.500000 
595 1 0.808154 0.193122 0.500000 
596 1 0.797889 0.210049 0.500000 
597 1 0.828127 0.193343 0.500000 
598 1 0.817869 0.210271 0.500000 
599 1 0.848096 0.193541 0.500000 
600 1 0.837851 0.210480 0.500000 
601 1 0.868072 0.193734 0.500000 
602 1 0.857830 0.210662 0.500000 
603 1 0.888058 0.193914 0.500000 
604 1 0.877818 0.210843 0.500000 
605 1 0.908046 0.194084 0.500000 
606 1 0.897811 0.211019 0.500000 
607 1 0.928037 0.194236 0.500000 
608 1 0.917811 0.211169 0.500000 
609 1 0.948021 0.194385 0.500000 
610 1 0.937808 0.211319 0.500000 
611 1 0.957807 0.211443 0.500000 
612 1 0.968031 0.194496 0.500000 
613 1 0.977825 0.211543 0.500000 
614 1 0.988043 0.194599 0.500000 
615 1 0.997847 0.211634 0.500000 
616 1 0.017654 0.218157 0.500000 
617 1 0.037684 0.218790 0.500000 
618 1 0.057718 0.219436 0.500000 
619 1 0.077775 0.220129 0.500000 
620 1 0.097843 0.220865 0.500000 
621 1 0.117923 0.221614 0.500000 
622 1 0.137993 0.222376 0.500000 
623 1 0.158069 0.223150 0.500000 
624 1 0.178135 0.223947 0.500000 
625 1 0.198198 0.224751 0.500000 
626 1 0.218261 0.225573 0.500000 
627 1 0.238329 0.226423 0.500000 
628 1 0.258385 0.227269 0.500000 
629 1 0.278425 0.228139 0.500000 
630 1 0.298454 0.229019 0.500000 
631 1 0.308862 0.212567 0.500000 
632 1 0.318485 0.229900 0.500000 
633 1 0.328872 0.213421 0.500000 
634 1 0.338491 0.230791 0.500000 
635 1 0.348868 0.214292 0.500000 
636 1 0.358482 0.231690 0.500000 
637 1 0.368854 0.215168 0.500000 
638 1 0.388825 0.216035 0.500000 
639 1 0.408781 0.216889 0.500000 
640 1 0.428727 0.217727 0.500000 
641 1 0.448661 0.218552 0.500000 
642 1 0.468587 0.219347 0.500000 
643 1 0.488507 0.220096 0.500000 
644 1 0.508421 0.220802 0.500000 
645 1 0.528336 0.221470 0.500000 
646 1 0.548255 0.222104 0.500000 
647 1 0.568179 0.222705 0.500000 
648 1 0.588097 0.223261 0.500000 
649 1 0.608024 0.223778 0.500000 
650 1 0.627953 0.224257 0.500000 
651 1 0.647886 0.224694 0.500000 
652 1 0.667829 0.225106 0.500000 
653 1 0.687785 0.225488 0.500000 
654 1 0.707741 0.225837 0.500000 
655 1 0.727706 0.226155 0.500000 
656 1 0.747680 0.226457 0.500000 
657 1 0.767654 0.226735 0.500000 
658 1 0.787629 0.226985 0.500000 
659 1 0.807611 0.227206 0.500000 
660 1 0.827596 0.227410 0.500000 
661 1 0.847588 0.227603 0.500000 
662 1 0.867579 0.227779 0.500000 
663 1 0.887575 0.227951 0.500000 
664 1 0.907576 0.228108 0.500000 
665 1 0.927578 0.228253 0.500000 
666 1 0.947580 0.228392 0.500000 
667 1 0.967605 0.228489 0.500000 
668 1 0.987634 0.228577 0.500000 
669 1 0.007189 0.234587 0.500000 
670 1 0.027214 0.235215 0.500000 
671 1 0.047243 0.235854 0.500000 
672 1 0.067275 0.236508 0.500000 
673 1 0.087351 0.237246 0.500000 
674 1 0.107424 0.237991 0.500000 
675 1 0.127497 0.238756 0.500000 
676 1 0.147569 0.239526 0.500000 
677 1 0.167642 0.240322 0.500000 
678 1 0.187719 0.241138 0.500000 
679 1 0.207794 0.241962 0.500000 
680 1 0.227863 0.242804 0.500000 
681 1 0.247926 0.243673 0.500000 
682 1 0.267978 0.244555 0.500000 
683 1 0.288026 0.245452 0.500000 
684 1 0.308063 0.246343 0.500000 
685 1 0.328084 0.247264 0.500000 
686 1 0.348090 0.248185 0.500000 
687 1 0.378465 0.232589 0.500000 
688 1 0.368088 0.249107 0.500000 
689 1 0.398434 0.233473 0.500000 
690 1 0.388068 0.250028 0.500000 
691 1 0.418388 0.234340 0.500000 
692 1 0.408025 0.250933 0.500000 
693 1 0.438327 0.235199 0.500000 
694 1 0.427968 0.251817 0.500000 
695 1 0.458253 0.236031 0.500000 
696 1 0.478180 0.236810 0.500000 
697 1 0.498101 0.237555 0.500000 
698 1 0.518020 0.238256 0.500000 
699 1 0.537938 0.238912 0.500000 
700 1 0.557858 0.239527 0.500000 
701 1 0.577785 0.240110 0.500000 
702 1 0.597720 0.240639 0.500000 
703 1 0.617654 0.241131 0.500000 
704 1 0.637596 0.241588 0.500000 
705 1 0.657543 0.242002 0.500000 
706 1 0.677504 0.242389 0.500000 
707 1 0.697467 0.242754 0.500000 
708 1 0.717435 0.243079 0.500000 
709 1 0.737403 0.243381 0.500000 
710 1 0.757376 0.243665 0.500000 
711 1 0.777355 0.243924 0.500000 
712 1 0.797344 0.244145 0.500000 
713 1 0.817339 0.244351 0.500000 
714 1 0.837336 0.244537 0.500000 
715 1 0.857338 0.244721 0.500000 
716 1 0.877338 0.244885 0.500000 
717 1 0.897341 0.245044 0.500000 
718 1 0.917350 0.245189 0.500000 
719 1 0.937365 0.245321 0.500000 
720 1 0.957383 0.245436 0.500000 
721 1 0.977417 0.245522 0.500000 
722 1 0.997455 0.245600 0.500000 
723 1 0.016737 0.251640 0.500000 
724 1 0.006256 0.268068 0.500000 
725 1 0.036760 0.252274 0.500000 
726 1 0.026272 0.268696 0.500000 
727 1 0.056787 0.252921 0.500000 
728 1 0.046292 0.269335 0.500000 
729 1 0.076847 0.253622 0.500000 
730 1 0.066319 0.269991 0.500000 
731 1 0.096913 0.254366 0.500000 
732 1 0.086381 0.270735 0.500000 
733 1 0.116981 0.255124 0.500000 
734 1 0.137059 0.255900 0.500000 
735 1 0.157133 0.256690 0.500000 
736 1 0.177213 0.257503 0.500000 
737 1 0.197298 0.258334 0.500000 
738 1 0.217376 0.259176 0.500000 
739 1 0.237448 0.260049 0.500000 
740 1 0.257507 0.260943 0.500000 
741 1 0.277569 0.261849 0.500000 
742 1 0.297621 0.262767 0.500000 
743 1 0.317652 0.263699 0.500000 
744 1 0.337674 0.264649 0.500000 
745 1 0.357684 0.265592 0.500000 
746 1 0.377678 0.266544 0.500000 
747 1 0.397651 0.267497 0.500000 
748 1 0.417604 0.268422 0.500000 
749 1 0.437546 0.269326 0.500000 
750 1 0.447904 0.252689 0.500000 
751 1 0.457484 0.270195 0.500000 
752 1 0.467839 0.253510 0.500000 
753 1 0.477408 0.271017 0.500000 
754 1 0.487765 0.254294 0.500000 
755 1 0.507683 0.255032 0.500000 
756 1 0.527600 0.255718 0.500000 
757 1 0.547523 0.256352 0.500000 
758 1 0.567448 0.256948 0.500000 
759 1 0.587388 0.257497 0.500000 
760 1 0.607332 0.258010 0.500000 
761 1 0.627278 0.258473 0.500000 
762 1 0.647230 0.258909 0.500000 
763 1 0.667190 0.259294 0.500000 
764 1 0.687159 0.259665 0.500000 
765 1 0.707140 0.260001 0.500000 
766 1 0.727122 0.260310 0.500000 
767 1 0.747103 0.260597 0.500000 
768 1 0.767087 0.260861 0.500000 
769 1 0.787084 0.261087 0.500000 
770 1 0.807087 0.261295 0.500000 
771 1 0.827092 0.261484 0.500000 
772 1 0.847092 0.261660 0.500000 
773 1 0.867095 0.261828 0.500000 
774 1 0.887105 0.261981 0.500000 
775 1 0.907123 0.262124 0.500000 
776 1 0.927143 0.262259 0.500000 
777 1 0.947159 0.262387 0.500000 
778 1 0.967200 0.262468 0.500000 
779 1 0.987245 0.262544 0.500000 
780 1 0.015779 0.285121 0.500000 
781 1 0.035792 0.285753 0.500000 
782 1 0.055810 0.286400 0.500000 
783 1 0.075853 0.287101 0.500000 
784 1 0.095918 0.287848 0.500000 
785 1 0.106453 0.271486 0.500000 
786 1 0.115987 0.288611 0.500000 
787 1 0.126528 0.272258 0.500000 
788 1 0.136060 0.289399 0.500000 
789 1 0.146604 0.273051 0.500000 
790 1 0.156146 0.290195 0.500000 
791 1 0.166688 0.273854 0.500000 
792 1 0.176232 0.291020 0.500000 
793 1 0.186776 0.274682 0.500000 
794 1 0.206868 0.275534 0.500000 
795 1 0.226947 0.276399 0.500000 
796 1 0.247025 0.277308 0.500000 
797 1 0.267095 0.278220 0.500000 
798 1 0.287151 0.279161 0.500000 
799 1 0.307192 0.280111 0.500000 
800 1 0.327228 0.281074 0.500000 
801 1 0.347257 0.282052 0.500000 
802 1 0.367264 0.283034 0.500000 
803 1 0.387251 0.284018 0.500000 
804 1 0.407220 0.284996 0.500000 
805 1 0.427177 0.285944 0.500000 
806 1 0.447122 0.286863 0.500000 
807 1 0.467053 0.287732 0.500000 
808 1 0.497327 0.271794 0.500000 
809 1 0.486974 0.288543 0.500000 
810 1 0.506895 0.289298 0.500000 
811 1 0.517251 0.272513 0.500000 
812 1 0.526821 0.289989 0.500000 
813 1 0.537182 0.273172 0.500000 
814 1 0.546749 0.290635 0.500000 
815 1 0.557112 0.273792 0.500000 
816 1 0.577050 0.274352 0.500000 
817 1 0.596995 0.274885 0.500000 
818 1 0.616954 0.275366 0.500000 
819 1 0.636911 0.275810 0.500000 
820 1 0.656877 0.276209 0.500000 
821 1 0.676848 0.276579 0.500000 
822 1 0.696835 0.276922 0.500000 
823 1 0.716827 0.277235 0.500000 
824 1 0.736817 0.277528 0.500000 
825 1 0.756810 0.277796 0.500000 
826 1 0.776813 0.278030 0.500000 
827 1 0.796820 0.278244 0.500000 
828 1 0.816832 0.278435 0.500000 
829 1 0.836842 0.278614 0.500000 
830 1 0.856853 0.278779 0.500000 
831 1 0.876865 0.278928 0.500000 
832 1 0.896885 0.279069 0.500000 
833 1 0.916911 0.279197 0.500000 
834 1 0.936941 0.279318 0.500000 
835 1 0.956982 0.279417 0.500000 
836 1 0.977036 0.279488 0.500000 
837 1 0.997089 0.279555 0.500000 
838 1 0.005284 0.301547 0.500000 
839 1 0.025288 0.302175 0.500000 
840 1 0.045299 0.302815 0.500000 
841 1 0.065313 0.303468 0.500000 
842 1 0.085372 0.304208 0.500000 
843 1 0.105437 0.304968 0.500000 
844 1 0.125501 0.305744 0.500000 
845 1 0.145578 0.306530 0.500000 
846 1 0.165659 0.307349 0.500000 
847 1 0.196322 0.291865 0.500000 
848 1 0.185746 0.308189 0.500000 
849 1 0.216417 0.292738 0.500000 
850 1 0.205842 0.309052 0.500000 
851 1 0.236493 0.293640 0.500000 
852 1 0.225930 0.309958 0.500000 
853 1 0.256574 0.294568 0.500000 
854 1 0.246021 0.310884 0.500000 
855 1 0.276643 0.295520 0.500000 
856 1 0.266109 0.311851 0.500000 
857 1 0.296707 0.296496 0.500000 
858 1 0.316760 0.297477 0.500000 
859 1 0.336801 0.298475 0.500000 
860 1 0.356826 0.299493 0.500000 
861 1 0.376830 0.300512 0.500000 
862 1 0.396810 0.301529 0.500000 
863 1 0.416775 0.302523 0.500000 
864 1 0.436724 0.303492 0.500000 
865 1 0.456664 0.304418 0.500000 
866 1 0.476593 0.305282 0.500000 
867 1 0.496517 0.306076 0.500000 
868 1 0.516443 0.306803 0.500000 
869 1 0.536378 0.307474 0.500000 
870 1 0.566691 0.291217 0.500000 
871 1 0.556328 0.308084 0.500000 
872 1 0.586641 0.291763 0.500000 
873 1 0.576278 0.308644 0.500000 
874 1 0.606600 0.292259 0.500000 
875 1 0.596237 0.309155 0.500000 
876 1 0.626559 0.292711 0.500000 
877 1 0.616204 0.309619 0.500000 
878 1 0.646538 0.293118 0.500000 
879 1 0.636186 0.310028 0.500000 
880 1 0.666521 0.293497 0.500000 
881 1 0.686516 0.293840 0.500000 