ITEM: TIMESTEP
2000
ITEM: NUMBER OF ATOMS
2850
ITEM: BOX BOUNDS ss ss pp
-28.0536 28.3253 
-28.9988 28.9984 
-0.5 0.5 
ITEM: ATOMS id type xs ys zs
1 1 0.012661 0.000000 0.500000 
2 1 0.032688 0.000597 0.500000 
3 1 0.052715 0.001202 0.500000 
4 1 0.072742 0.001814 0.500000 
5 1 0.092767 0.002433 0.500000 
6 1 0.112794 0.003060 0.500000 
7 1 0.132817 0.003697 0.500000 
8 1 0.152841 0.004338 0.500000 
9 1 0.172861 0.004988 0.500000 
10 1 0.192879 0.005643 0.500000 
11 1 0.212895 0.006305 0.500000 
12 1 0.232906 0.006973 0.500000 
13 1 0.252912 0.007645 0.500000 
14 1 0.272914 0.008319 0.500000 
15 1 0.292911 0.008997 0.500000 
16 1 0.312901 0.009676 0.500000 
17 1 0.332885 0.010356 0.500000 
18 1 0.352861 0.011033 0.500000 
19 1 0.372830 0.011707 0.500000 
20 1 0.392791 0.012376 0.500000 
21 1 0.022340 0.017073 0.500000 
22 1 0.042369 0.017677 0.500000 
23 1 0.062397 0.018289 0.500000 
24 1 0.082426 0.018911 0.500000 
25 1 0.102455 0.019539 0.500000 
26 1 0.122484 0.020177 0.500000 
27 1 0.142511 0.020822 0.500000 
28 1 0.162536 0.021475 0.500000 
29 1 0.182559 0.022136 0.500000 
30 1 0.202579 0.022803 0.500000 
31 1 0.222596 0.023475 0.500000 
32 1 0.242610 0.024155 0.500000 
33 1 0.262618 0.024839 0.500000 
34 1 0.282622 0.025527 0.500000 
35 1 0.302619 0.026217 0.500000 
36 1 0.322610 0.026908 0.500000 
37 1 0.342593 0.027600 0.500000 
38 1 0.362570 0.028289 0.500000 
39 1 0.382537 0.028974 0.500000 
40 1 0.402497 0.029655 0.500000 
41 1 0.412744 0.013039 0.500000 
42 1 0.422448 0.030326 0.500000 
43 1 0.432688 0.013694 0.500000 
44 1 0.442390 0.030989 0.500000 
45 1 0.452624 0.014337 0.500000 
46 1 0.462324 0.031639 0.500000 
47 1 0.472553 0.014968 0.500000 
48 1 0.482250 0.032276 0.500000 
49 1 0.492474 0.015584 0.500000 
50 1 0.512388 0.016184 0.500000 
51 1 0.532295 0.016766 0.500000 
52 1 0.552198 0.017330 0.500000 
53 1 0.572095 0.017873 0.500000 
54 1 0.591989 0.018396 0.500000 
55 1 0.611880 0.018896 0.500000 
56 1 0.631769 0.019373 0.500000 
57 1 0.651657 0.019829 0.500000 
58 1 0.671546 0.020261 0.500000 
59 1 0.691436 0.020670 0.500000 
60 1 0.711328 0.021058 0.500000 
61 1 0.731222 0.021423 0.500000 
62 1 0.751120 0.021768 0.500000 
63 1 0.771021 0.022094 0.500000 
64 1 0.790927 0.022399 0.500000 
65 1 0.810837 0.022687 0.500000 
66 1 0.830751 0.022958 0.500000 
67 1 0.850671 0.023211 0.500000 
68 1 0.870595 0.023449 0.500000 
69 1 0.890525 0.023674 0.500000 
70 1 0.910459 0.023884 0.500000 
71 1 0.930398 0.024080 0.500000 
72 1 0.950341 0.024267 0.500000 
73 1 0.970290 0.024443 0.500000 
74 1 0.990243 0.024606 0.500000 
75 1 0.011983 0.033545 0.500000 
76 1 0.032014 0.034148 0.500000 
77 1 0.021650 0.050615 0.500000 
78 1 0.052044 0.034760 0.500000 
79 1 0.041680 0.051227 0.500000 
80 1 0.072075 0.035381 0.500000 
81 1 0.061715 0.051847 0.500000 
82 1 0.092107 0.036012 0.500000 
83 1 0.081758 0.052493 0.500000 
84 1 0.112138 0.036650 0.500000 
85 1 0.132168 0.037297 0.500000 
86 1 0.152197 0.037952 0.500000 
87 1 0.172226 0.038617 0.500000 
88 1 0.192251 0.039288 0.500000 
89 1 0.212274 0.039967 0.500000 
90 1 0.232293 0.040654 0.500000 
91 1 0.252309 0.041345 0.500000 
92 1 0.272318 0.042042 0.500000 
93 1 0.292324 0.042743 0.500000 
94 1 0.312323 0.043447 0.500000 
95 1 0.332314 0.044150 0.500000 
96 1 0.352297 0.044856 0.500000 
97 1 0.372273 0.045557 0.500000 
98 1 0.392240 0.046254 0.500000 
99 1 0.412198 0.046944 0.500000 
100 1 0.432147 0.047626 0.500000 
101 1 0.452087 0.048297 0.500000 
102 1 0.472018 0.048954 0.500000 
103 1 0.502167 0.032896 0.500000 
104 1 0.491940 0.049595 0.500000 
105 1 0.522078 0.033498 0.500000 
106 1 0.511855 0.050220 0.500000 
107 1 0.541983 0.034081 0.500000 
108 1 0.531762 0.050823 0.500000 
109 1 0.561882 0.034643 0.500000 
110 1 0.551663 0.051406 0.500000 
111 1 0.581777 0.035184 0.500000 
112 1 0.571560 0.051966 0.500000 
113 1 0.601668 0.035702 0.500000 
114 1 0.591452 0.052503 0.500000 
115 1 0.621558 0.036195 0.500000 
116 1 0.641446 0.036666 0.500000 
117 1 0.661334 0.037110 0.500000 
118 1 0.681223 0.037533 0.500000 
119 1 0.701115 0.037931 0.500000 
120 1 0.721007 0.038307 0.500000 
121 1 0.740905 0.038660 0.500000 
122 1 0.760806 0.038993 0.500000 
123 1 0.780711 0.039305 0.500000 
124 1 0.800620 0.039597 0.500000 
125 1 0.820536 0.039873 0.500000 
126 1 0.840456 0.040130 0.500000 
127 1 0.860382 0.040369 0.500000 
128 1 0.880312 0.040595 0.500000 
129 1 0.900248 0.040807 0.500000 
130 1 0.920188 0.041005 0.500000 
131 1 0.940134 0.041192 0.500000 
132 1 0.960084 0.041368 0.500000 
133 1 0.980040 0.041531 0.500000 
134 1 1.000000 0.041686 0.500000 
135 1 0.011275 0.067077 0.500000 
136 1 0.031308 0.067688 0.500000 
137 1 0.051342 0.068307 0.500000 
138 1 0.071376 0.068936 0.500000 
139 1 0.091422 0.069598 0.500000 
140 1 0.101777 0.053134 0.500000 
141 1 0.111449 0.070254 0.500000 
142 1 0.121807 0.053771 0.500000 
143 1 0.131481 0.070890 0.500000 
144 1 0.141854 0.054414 0.500000 
145 1 0.151517 0.071563 0.500000 
146 1 0.161883 0.055091 0.500000 
147 1 0.171566 0.072250 0.500000 
148 1 0.181919 0.055765 0.500000 
149 1 0.201948 0.056465 0.500000 
150 1 0.221963 0.057162 0.500000 
151 1 0.241980 0.057868 0.500000 
152 1 0.261986 0.058566 0.500000 
153 1 0.281998 0.059285 0.500000 
154 1 0.302014 0.059993 0.500000 
155 1 0.322004 0.060695 0.500000 
156 1 0.341997 0.061403 0.500000 
157 1 0.361967 0.062186 0.500000 
158 1 0.381927 0.062885 0.500000 
159 1 0.401898 0.063561 0.500000 
160 1 0.421854 0.064289 0.500000 
161 1 0.441792 0.065003 0.500000 
162 1 0.461748 0.065630 0.500000 
163 1 0.481678 0.066324 0.500000 
164 1 0.501582 0.066955 0.500000 
165 1 0.521496 0.067562 0.500000 
166 1 0.541397 0.068179 0.500000 
167 1 0.561280 0.068760 0.500000 
168 1 0.581187 0.069320 0.500000 
169 1 0.601082 0.069847 0.500000 
170 1 0.611341 0.053013 0.500000 
171 1 0.620978 0.070318 0.500000 
172 1 0.631230 0.053499 0.500000 
173 1 0.640879 0.070819 0.500000 
174 1 0.651117 0.053960 0.500000 
175 1 0.671006 0.054396 0.500000 
176 1 0.660783 0.071283 0.500000 
177 1 0.690897 0.054806 0.500000 
178 1 0.680674 0.071708 0.500000 
179 1 0.710789 0.055192 0.500000 
180 1 0.700564 0.072092 0.500000 
181 1 0.730685 0.055554 0.500000 
182 1 0.720463 0.072455 0.500000 
183 1 0.750586 0.055894 0.500000 
184 1 0.770490 0.056213 0.500000 
185 1 0.790400 0.056511 0.500000 
186 1 0.810316 0.056789 0.500000 
187 1 0.830238 0.057049 0.500000 
188 1 0.850164 0.057294 0.500000 
189 1 0.870095 0.057522 0.500000 
190 1 0.890032 0.057734 0.500000 
191 1 0.909975 0.057934 0.500000 
192 1 0.929922 0.058120 0.500000 
193 1 0.949875 0.058294 0.500000 
194 1 0.969833 0.058458 0.500000 
195 1 0.989796 0.058613 0.500000 
196 1 0.020924 0.084144 0.500000 
197 1 0.040959 0.084763 0.500000 
198 1 0.060994 0.085390 0.500000 
199 1 0.081021 0.086021 0.500000 
200 1 0.101058 0.086709 0.500000 
201 1 0.121104 0.087364 0.500000 
202 1 0.141149 0.088028 0.500000 
203 1 0.161190 0.088724 0.500000 
204 1 0.191613 0.072953 0.500000 
205 1 0.181248 0.089425 0.500000 
206 1 0.211638 0.073668 0.500000 
207 1 0.201284 0.090149 0.500000 
208 1 0.221291 0.090875 0.500000 
209 1 0.231644 0.074379 0.500000 
210 1 0.241298 0.091602 0.500000 
211 1 0.251650 0.075088 0.500000 
212 1 0.261298 0.092324 0.500000 
213 1 0.271644 0.075808 0.500000 
214 1 0.291688 0.076526 0.500000 
215 1 0.311712 0.077270 0.500000 
216 1 0.331690 0.077975 0.500000 
217 1 0.351657 0.078741 0.500000 
218 1 0.371652 0.079511 0.500000 
219 1 0.391624 0.080192 0.500000 
220 1 0.411550 0.080916 0.500000 
221 1 0.431489 0.081669 0.500000 
222 1 0.451463 0.082323 0.500000 
223 1 0.471390 0.083011 0.500000 
224 1 0.491329 0.083703 0.500000 
225 1 0.511239 0.084333 0.500000 
226 1 0.531127 0.084964 0.500000 
227 1 0.551025 0.085570 0.500000 
228 1 0.570926 0.086113 0.500000 
229 1 0.590830 0.086666 0.500000 
230 1 0.610735 0.087162 0.500000 
231 1 0.630630 0.087671 0.500000 
232 1 0.650541 0.088143 0.500000 
233 1 0.670434 0.088606 0.500000 
234 1 0.690310 0.089005 0.500000 
235 1 0.710202 0.089365 0.500000 
236 1 0.730104 0.089710 0.500000 
237 1 0.740366 0.072792 0.500000 
238 1 0.750016 0.090048 0.500000 
239 1 0.760263 0.073130 0.500000 
240 1 0.769918 0.090356 0.500000 
241 1 0.780174 0.073437 0.500000 
242 1 0.789824 0.090659 0.500000 
243 1 0.800093 0.073730 0.500000 
244 1 0.809749 0.090917 0.500000 
245 1 0.820008 0.073977 0.500000 
246 1 0.829667 0.091154 0.500000 
247 1 0.839926 0.074221 0.500000 
248 1 0.849594 0.091385 0.500000 
249 1 0.859865 0.074450 0.500000 
250 1 0.869543 0.091592 0.500000 
251 1 0.879819 0.074655 0.500000 
252 1 0.889497 0.091797 0.500000 
253 1 0.899762 0.074878 0.500000 
254 1 0.909448 0.092004 0.500000 
255 1 0.919697 0.075068 0.500000 
256 1 0.929414 0.092162 0.500000 
257 1 0.939658 0.075239 0.500000 
258 1 0.949407 0.092323 0.500000 
259 1 0.959621 0.075390 0.500000 
260 1 0.979588 0.075542 0.500000 
261 1 0.999557 0.075685 0.500000 
262 1 0.010532 0.100598 0.500000 
263 1 0.030566 0.101214 0.500000 
264 1 0.050602 0.101839 0.500000 
265 1 0.070640 0.102476 0.500000 
266 1 0.090686 0.103138 0.500000 
267 1 0.110744 0.103817 0.500000 
268 1 0.130784 0.104486 0.500000 
269 1 0.150807 0.105183 0.500000 
270 1 0.170850 0.105867 0.500000 
271 1 0.190889 0.106600 0.500000 
272 1 0.210911 0.107344 0.500000 
273 1 0.230932 0.108079 0.500000 
274 1 0.250969 0.108829 0.500000 
275 1 0.270984 0.109561 0.500000 
276 1 0.281320 0.093041 0.500000 
277 1 0.290976 0.110312 0.500000 
278 1 0.301350 0.093800 0.500000 
279 1 0.310978 0.111063 0.500000 
280 1 0.321372 0.094556 0.500000 
281 1 0.330985 0.111851 0.500000 
282 1 0.341333 0.095301 0.500000 
283 1 0.361300 0.096062 0.500000 
284 1 0.381316 0.096820 0.500000 
285 1 0.401255 0.097581 0.500000 
286 1 0.421172 0.098312 0.500000 
287 1 0.441142 0.098997 0.500000 
288 1 0.461078 0.099714 0.500000 
289 1 0.481023 0.100386 0.500000 
290 1 0.500971 0.101077 0.500000 
291 1 0.520863 0.101742 0.500000 
292 1 0.540758 0.102348 0.500000 
293 1 0.560663 0.102933 0.500000 
294 1 0.580561 0.103470 0.500000 
295 1 0.600470 0.103987 0.500000 
296 1 0.620367 0.104519 0.500000 
297 1 0.640270 0.105011 0.500000 
298 1 0.660175 0.105477 0.500000 
299 1 0.680081 0.105918 0.500000 
300 1 0.699962 0.106295 0.500000 
301 1 0.719843 0.106650 0.500000 
302 1 0.739746 0.106956 0.500000 
303 1 0.759657 0.107299 0.500000 
304 1 0.779575 0.107592 0.500000 
305 1 0.799508 0.107860 0.500000 
306 1 0.819431 0.108097 0.500000 
307 1 0.839363 0.108324 0.500000 
308 1 0.859308 0.108533 0.500000 
309 1 0.879265 0.108719 0.500000 
310 1 0.899227 0.108914 0.500000 
311 1 0.919210 0.109093 0.500000 
312 1 0.939182 0.109255 0.500000 
313 1 0.969375 0.092475 0.500000 
314 1 0.959160 0.109410 0.500000 
315 1 0.989349 0.092617 0.500000 
316 1 0.979136 0.109550 0.500000 
317 1 0.999117 0.109681 0.500000 
318 1 0.020165 0.117663 0.500000 
319 1 0.040201 0.118287 0.500000 
320 1 0.060239 0.118920 0.500000 
321 1 0.080286 0.119585 0.500000 
322 1 0.100335 0.120243 0.500000 
323 1 0.120394 0.120936 0.500000 
324 1 0.140433 0.121635 0.500000 
325 1 0.160476 0.122317 0.500000 
326 1 0.180514 0.123035 0.500000 
327 1 0.200545 0.123798 0.500000 
328 1 0.220562 0.124556 0.500000 
329 1 0.240588 0.125294 0.500000 
330 1 0.260623 0.126047 0.500000 
331 1 0.280642 0.126821 0.500000 
332 1 0.300647 0.127578 0.500000 
333 1 0.320644 0.128340 0.500000 
334 1 0.340644 0.129166 0.500000 
335 1 0.350961 0.112628 0.500000 
336 1 0.360618 0.129953 0.500000 
337 1 0.370939 0.113373 0.500000 
338 1 0.380566 0.130755 0.500000 
339 1 0.390912 0.114208 0.500000 
340 1 0.400567 0.131540 0.500000 
341 1 0.410876 0.114961 0.500000 
342 1 0.420566 0.132297 0.500000 
343 1 0.430850 0.115644 0.500000 
344 1 0.450790 0.116394 0.500000 
345 1 0.470737 0.117084 0.500000 
346 1 0.490664 0.117772 0.500000 
347 1 0.510578 0.118483 0.500000 
348 1 0.530495 0.119124 0.500000 
349 1 0.550398 0.119725 0.500000 
350 1 0.570305 0.120286 0.500000 
351 1 0.590198 0.120812 0.500000 
352 1 0.610093 0.121349 0.500000 
353 1 0.629997 0.121862 0.500000 
354 1 0.649887 0.122347 0.500000 
355 1 0.669788 0.122799 0.500000 
356 1 0.689696 0.123221 0.500000 
357 1 0.709604 0.123588 0.500000 
358 1 0.729513 0.123910 0.500000 
359 1 0.749410 0.124231 0.500000 
360 1 0.769323 0.124543 0.500000 
361 1 0.789248 0.124799 0.500000 
362 1 0.809195 0.125064 0.500000 
363 1 0.829132 0.125281 0.500000 
364 1 0.849076 0.125479 0.500000 
365 1 0.869050 0.125646 0.500000 
366 1 0.889020 0.125842 0.500000 
367 1 0.908990 0.126021 0.500000 
368 1 0.928956 0.126198 0.500000 
369 1 0.948940 0.126349 0.500000 
370 1 0.968919 0.126487 0.500000 
371 1 0.988905 0.126616 0.500000 
372 1 0.009754 0.134110 0.500000 
373 1 0.029790 0.134729 0.500000 
374 1 0.019367 0.151171 0.500000 
375 1 0.049825 0.135360 0.500000 
376 1 0.039403 0.151799 0.500000 
377 1 0.069865 0.136003 0.500000 
378 1 0.089937 0.136685 0.500000 
379 1 0.109989 0.137367 0.500000 
380 1 0.130042 0.138070 0.500000 
381 1 0.150080 0.138771 0.500000 
382 1 0.170108 0.139480 0.500000 
383 1 0.190149 0.140231 0.500000 
384 1 0.210192 0.141016 0.500000 
385 1 0.230236 0.141778 0.500000 
386 1 0.250258 0.142527 0.500000 
387 1 0.270272 0.143296 0.500000 
388 1 0.290316 0.144083 0.500000 
389 1 0.310333 0.144863 0.500000 
390 1 0.330312 0.145668 0.500000 
391 1 0.350304 0.146504 0.500000 
392 1 0.370281 0.147331 0.500000 
393 1 0.390259 0.148106 0.500000 
394 1 0.410232 0.148897 0.500000 
395 1 0.440508 0.133053 0.500000 
396 1 0.430191 0.149706 0.500000 
397 1 0.460451 0.133764 0.500000 
398 1 0.450151 0.150442 0.500000 
399 1 0.480377 0.134488 0.500000 
400 1 0.470077 0.151175 0.500000 
401 1 0.500289 0.135207 0.500000 
402 1 0.489988 0.151927 0.500000 
403 1 0.520209 0.135880 0.500000 
404 1 0.540125 0.136536 0.500000 
405 1 0.560033 0.137099 0.500000 
406 1 0.579935 0.137649 0.500000 
407 1 0.599824 0.138195 0.500000 
408 1 0.619711 0.138721 0.500000 
409 1 0.639596 0.139217 0.500000 
410 1 0.659497 0.139676 0.500000 
411 1 0.679398 0.140122 0.500000 
412 1 0.699314 0.140510 0.500000 
413 1 0.719238 0.140867 0.500000 
414 1 0.739159 0.141189 0.500000 
415 1 0.759074 0.141494 0.500000 
416 1 0.778998 0.141766 0.500000 
417 1 0.798915 0.142003 0.500000 
418 1 0.818867 0.142242 0.500000 
419 1 0.838836 0.142443 0.500000 
420 1 0.858809 0.142595 0.500000 
421 1 0.878760 0.142788 0.500000 
422 1 0.898738 0.142971 0.500000 
423 1 0.918723 0.143142 0.500000 
424 1 0.938709 0.143276 0.500000 
425 1 0.958701 0.143428 0.500000 
426 1 0.978689 0.143555 0.500000 
427 1 0.998682 0.143674 0.500000 
428 1 0.008938 0.167610 0.500000 
429 1 0.028972 0.168234 0.500000 
430 1 0.049008 0.168868 0.500000 
431 1 0.059442 0.152437 0.500000 
432 1 0.069047 0.169517 0.500000 
433 1 0.079506 0.153103 0.500000 
434 1 0.089119 0.170211 0.500000 
435 1 0.099558 0.153791 0.500000 
436 1 0.109177 0.170890 0.500000 
437 1 0.119624 0.154485 0.500000 
438 1 0.139684 0.155197 0.500000 
439 1 0.129238 0.171597 0.500000 
440 1 0.159716 0.155931 0.500000 
441 1 0.179746 0.156663 0.500000 
442 1 0.199800 0.157443 0.500000 
443 1 0.219844 0.158228 0.500000 
444 1 0.239888 0.159017 0.500000 
445 1 0.259905 0.159784 0.500000 
446 1 0.279943 0.160553 0.500000 
447 1 0.299986 0.161378 0.500000 
448 1 0.319997 0.162204 0.500000 
449 1 0.339974 0.163036 0.500000 
450 1 0.359964 0.163872 0.500000 
451 1 0.379963 0.164694 0.500000 
452 1 0.399929 0.165506 0.500000 
453 1 0.419869 0.166339 0.500000 
454 1 0.439835 0.167094 0.500000 
455 1 0.459777 0.167873 0.500000 
456 1 0.479678 0.168641 0.500000 
457 1 0.499595 0.169352 0.500000 
458 1 0.509902 0.152622 0.500000 
459 1 0.519511 0.170053 0.500000 
460 1 0.529804 0.153294 0.500000 
461 1 0.539446 0.170684 0.500000 
462 1 0.549738 0.153912 0.500000 
463 1 0.559369 0.171310 0.500000 
464 1 0.569653 0.154495 0.500000 
465 1 0.579294 0.171893 0.500000 
466 1 0.589551 0.155040 0.500000 
467 1 0.609444 0.155580 0.500000 
468 1 0.629331 0.156099 0.500000 
469 1 0.649240 0.156562 0.500000 
470 1 0.669155 0.157016 0.500000 
471 1 0.689081 0.157424 0.500000 
472 1 0.708994 0.157820 0.500000 
473 1 0.728907 0.158149 0.500000 
474 1 0.748829 0.158447 0.500000 
475 1 0.768760 0.158701 0.500000 
476 1 0.788708 0.158974 0.500000 
477 1 0.808658 0.159191 0.500000 
478 1 0.828604 0.159397 0.500000 
479 1 0.848565 0.159572 0.500000 
480 1 0.868523 0.159749 0.500000 
481 1 0.888503 0.159920 0.500000 
482 1 0.908495 0.160078 0.500000 
483 1 0.928502 0.160221 0.500000 
484 1 0.948477 0.160370 0.500000 
485 1 0.968470 0.160496 0.500000 
486 1 0.988467 0.160611 0.500000 
487 1 0.018532 0.184668 0.500000 
488 1 0.038566 0.185299 0.500000 
489 1 0.058602 0.185942 0.500000 
490 1 0.078646 0.186618 0.500000 
491 1 0.098731 0.187301 0.500000 
492 1 0.118801 0.188013 0.500000 
493 1 0.138859 0.188746 0.500000 
494 1 0.149301 0.172331 0.500000 
495 1 0.158900 0.189488 0.500000 
496 1 0.169352 0.173097 0.500000 
497 1 0.178937 0.190269 0.500000 
498 1 0.189378 0.173854 0.500000 
499 1 0.198986 0.191060 0.500000 
500 1 0.209423 0.174660 0.500000 
501 1 0.219049 0.191884 0.500000 
502 1 0.229476 0.175455 0.500000 
503 1 0.249534 0.176267 0.500000 
504 1 0.269570 0.177042 0.500000 
505 1 0.289590 0.177853 0.500000 
506 1 0.309636 0.178691 0.500000 
507 1 0.329660 0.179563 0.500000 
508 1 0.349655 0.180403 0.500000 
509 1 0.369646 0.181233 0.500000 
510 1 0.389630 0.182097 0.500000 
511 1 0.409586 0.182961 0.500000 
512 1 0.429549 0.183745 0.500000 
513 1 0.449468 0.184541 0.500000 
514 1 0.469383 0.185352 0.500000 
515 1 0.489305 0.186091 0.500000 
516 1 0.509217 0.186809 0.500000 
517 1 0.529166 0.187466 0.500000 
518 1 0.549091 0.188119 0.500000 
519 1 0.569000 0.188727 0.500000 
520 1 0.588897 0.189298 0.500000 
521 1 0.599190 0.172441 0.500000 
522 1 0.608802 0.189837 0.500000 
523 1 0.619079 0.172981 0.500000 
524 1 0.628716 0.190346 0.500000 
525 1 0.638991 0.173450 0.500000 
526 1 0.648611 0.190815 0.500000 
527 1 0.658900 0.173915 0.500000 
528 1 0.668519 0.191249 0.500000 
529 1 0.678810 0.174339 0.500000 
530 1 0.688438 0.191660 0.500000 
531 1 0.698725 0.174742 0.500000 
532 1 0.718652 0.175096 0.500000 
533 1 0.738569 0.175416 0.500000 
534 1 0.758487 0.175675 0.500000 
535 1 0.778412 0.175915 0.500000 
536 1 0.798373 0.176151 0.500000 
537 1 0.818330 0.176355 0.500000 
538 1 0.838300 0.176537 0.500000 
539 1 0.858283 0.176714 0.500000 
540 1 0.878269 0.176869 0.500000 
541 1 0.898258 0.177036 0.500000 
542 1 0.918249 0.177160 0.500000 
543 1 0.938244 0.177324 0.500000 
544 1 0.958249 0.177440 0.500000 
545 1 0.978251 0.177553 0.500000 
546 1 0.998258 0.177659 0.500000 
547 1 0.008083 0.201103 0.500000 
548 1 0.028113 0.201727 0.500000 
549 1 0.048147 0.202367 0.500000 
550 1 0.068185 0.203017 0.500000 
551 1 0.088242 0.203698 0.500000 
552 1 0.108315 0.204423 0.500000 
553 1 0.128377 0.205166 0.500000 
554 1 0.148444 0.205902 0.500000 
555 1 0.168485 0.206676 0.500000 
556 1 0.188528 0.207455 0.500000 
557 1 0.208584 0.208272 0.500000 
558 1 0.239084 0.192699 0.500000 
559 1 0.228632 0.209122 0.500000 
560 1 0.259143 0.193503 0.500000 
561 1 0.248687 0.209918 0.500000 
562 1 0.279194 0.194321 0.500000 
563 1 0.268753 0.210754 0.500000 
564 1 0.299236 0.195142 0.500000 
565 1 0.288825 0.211588 0.500000 
566 1 0.319270 0.196002 0.500000 
567 1 0.339302 0.196897 0.500000 
568 1 0.359321 0.197762 0.500000 
569 1 0.379297 0.198639 0.500000 
570 1 0.399258 0.199523 0.500000 
571 1 0.419237 0.200358 0.500000 
572 1 0.439162 0.201203 0.500000 
573 1 0.459078 0.202025 0.500000 
574 1 0.479005 0.202802 0.500000 
575 1 0.498924 0.203564 0.500000 
576 1 0.518848 0.204228 0.500000 
577 1 0.538760 0.204908 0.500000 
578 1 0.558688 0.205544 0.500000 
579 1 0.578602 0.206145 0.500000 
580 1 0.598515 0.206687 0.500000 
581 1 0.618425 0.207215 0.500000 
582 1 0.638344 0.207708 0.500000 
583 1 0.658251 0.208164 0.500000 
584 1 0.678161 0.208583 0.500000 
585 1 0.708358 0.192038 0.500000 
586 1 0.698079 0.208969 0.500000 
587 1 0.728272 0.192371 0.500000 
588 1 0.718006 0.209332 0.500000 
589 1 0.748218 0.192664 0.500000 
590 1 0.737956 0.209624 0.500000 
591 1 0.768153 0.192903 0.500000 
592 1 0.757920 0.209885 0.500000 
593 1 0.788103 0.193109 0.500000 
594 1 0.777889 0.210078 0.500000 
595 1 0.808070 0.193307 0.500000 
596 1 0.797865 0.210271 0.500000 
597 1 0.828032 0.193499 0.500000 
598 1 0.817836 0.210465 0.500000 
599 1 0.848009 0.193670 0.500000 
600 1 0.837801 0.210648 0.500000 
601 1 0.868003 0.193835 0.500000 
602 1 0.857771 0.210804 0.500000 
603 1 0.887996 0.193986 0.500000 
604 1 0.877768 0.210942 0.500000 
605 1 0.908001 0.194112 0.500000 
606 1 0.897779 0.211077 0.500000 
607 1 0.928006 0.194254 0.500000 
608 1 0.917777 0.211185 0.500000 
609 1 0.948021 0.194385 0.500000 
610 1 0.937789 0.211329 0.500000 
611 1 0.957807 0.211443 0.500000 
612 1 0.968031 0.194496 0.500000 
613 1 0.977825 0.211543 0.500000 
614 1 0.988043 0.194599 0.500000 
615 1 0.997847 0.211634 0.500000 
616 1 0.017654 0.218157 0.500000 
617 1 0.037684 0.218790 0.500000 
618 1 0.057718 0.219436 0.500000 
619 1 0.077773 0.220114 0.500000 
620 1 0.097821 0.220803 0.500000 
621 1 0.117881 0.221560 0.500000 
622 1 0.137940 0.222301 0.500000 
623 1 0.158002 0.223073 0.500000 
624 1 0.178068 0.223871 0.500000 
625 1 0.198129 0.224661 0.500000 
626 1 0.218198 0.225502 0.500000 
627 1 0.238261 0.226337 0.500000 
628 1 0.258319 0.227169 0.500000 
629 1 0.278389 0.228012 0.500000 
630 1 0.298459 0.228879 0.500000 
631 1 0.308882 0.212448 0.500000 
632 1 0.318489 0.229837 0.500000 
633 1 0.328886 0.213358 0.500000 
634 1 0.338519 0.230739 0.500000 
635 1 0.348906 0.214252 0.500000 
636 1 0.358529 0.231660 0.500000 
637 1 0.368910 0.215170 0.500000 
638 1 0.388885 0.216055 0.500000 
639 1 0.408869 0.216915 0.500000 
640 1 0.428814 0.217836 0.500000 
641 1 0.448746 0.218686 0.500000 
642 1 0.468672 0.219496 0.500000 
643 1 0.488584 0.220277 0.500000 
644 1 0.508535 0.220977 0.500000 
645 1 0.528456 0.221685 0.500000 
646 1 0.548378 0.222322 0.500000 
647 1 0.568299 0.222973 0.500000 
648 1 0.588223 0.223531 0.500000 
649 1 0.608140 0.224081 0.500000 
650 1 0.628060 0.224586 0.500000 
651 1 0.647972 0.225075 0.500000 
652 1 0.667891 0.225518 0.500000 
653 1 0.687812 0.225902 0.500000 
654 1 0.707743 0.226264 0.500000 
655 1 0.727696 0.226573 0.500000 
656 1 0.747650 0.226853 0.500000 
657 1 0.767623 0.227081 0.500000 
658 1 0.787590 0.227250 0.500000 
659 1 0.807567 0.227431 0.500000 
660 1 0.827570 0.227616 0.500000 
661 1 0.847570 0.227775 0.500000 
662 1 0.867554 0.227910 0.500000 
663 1 0.887538 0.228028 0.500000 
664 1 0.907567 0.228158 0.500000 
665 1 0.927566 0.228268 0.500000 
666 1 0.947580 0.228392 0.500000 
667 1 0.967605 0.228489 0.500000 
668 1 0.987634 0.228577 0.500000 
669 1 0.007189 0.234587 0.500000 
670 1 0.027214 0.235215 0.500000 
671 1 0.047243 0.235854 0.500000 
672 1 0.067275 0.236508 0.500000 
673 1 0.087338 0.237201 0.500000 
674 1 0.107384 0.237924 0.500000 
675 1 0.127445 0.238687 0.500000 
676 1 0.147511 0.239448 0.500000 
677 1 0.167605 0.240250 0.500000 
678 1 0.187677 0.241069 0.500000 
679 1 0.207724 0.241884 0.500000 
680 1 0.227786 0.242735 0.500000 
681 1 0.247864 0.243569 0.500000 
682 1 0.267945 0.244435 0.500000 
683 1 0.288011 0.245290 0.500000 
684 1 0.308048 0.246250 0.500000 
685 1 0.328120 0.247195 0.500000 
686 1 0.348156 0.248127 0.500000 
687 1 0.378528 0.232597 0.500000 
688 1 0.368149 0.249089 0.500000 
689 1 0.398507 0.233471 0.500000 
690 1 0.388150 0.250029 0.500000 
691 1 0.418444 0.234434 0.500000 
692 1 0.408084 0.251006 0.500000 
693 1 0.438394 0.235323 0.500000 
694 1 0.428047 0.251934 0.500000 
695 1 0.458340 0.236162 0.500000 
696 1 0.478264 0.236989 0.500000 
697 1 0.498206 0.237707 0.500000 
698 1 0.518129 0.238446 0.500000 
699 1 0.538066 0.239115 0.500000 
700 1 0.557969 0.239765 0.500000 
701 1 0.577906 0.240361 0.500000 
702 1 0.597817 0.240926 0.500000 
703 1 0.617736 0.241455 0.500000 
704 1 0.637668 0.241966 0.500000 
705 1 0.657602 0.242430 0.500000 
706 1 0.677540 0.242826 0.500000 
707 1 0.697479 0.243189 0.500000 
708 1 0.717441 0.243510 0.500000 
709 1 0.737405 0.243820 0.500000 
710 1 0.757374 0.244053 0.500000 
711 1 0.777367 0.244258 0.500000 
712 1 0.797355 0.244425 0.500000 
713 1 0.817332 0.244569 0.500000 
714 1 0.837325 0.244750 0.500000 
715 1 0.857313 0.244883 0.500000 
716 1 0.877308 0.245005 0.500000 
717 1 0.897313 0.245101 0.500000 
718 1 0.917348 0.245229 0.500000 
719 1 0.937371 0.245324 0.500000 
720 1 0.957383 0.245436 0.500000 
721 1 0.977417 0.245522 0.500000 
722 1 0.997455 0.245600 0.500000 
723 1 0.016737 0.251640 0.500000 
724 1 0.006256 0.268068 0.500000 
725 1 0.036760 0.252274 0.500000 
726 1 0.026272 0.268696 0.500000 
727 1 0.056787 0.252921 0.500000 
728 1 0.046292 0.269335 0.500000 
729 1 0.076847 0.253588 0.500000 
730 1 0.066319 0.269991 0.500000 
731 1 0.096906 0.254315 0.500000 
732 1 0.086376 0.270713 0.500000 
733 1 0.116969 0.255066 0.500000 
734 1 0.137047 0.255832 0.500000 
735 1 0.157124 0.256593 0.500000 
736 1 0.177195 0.257434 0.500000 
737 1 0.197238 0.258277 0.500000 
738 1 0.217282 0.259105 0.500000 
739 1 0.237363 0.259958 0.500000 
740 1 0.257445 0.260823 0.500000 
741 1 0.277541 0.261699 0.500000 
742 1 0.297591 0.262637 0.500000 
743 1 0.317673 0.263579 0.500000 
744 1 0.337738 0.264555 0.500000 
745 1 0.357743 0.265560 0.500000 
746 1 0.377747 0.266528 0.500000 
747 1 0.397700 0.267559 0.500000 
748 1 0.417659 0.268492 0.500000 
749 1 0.437619 0.269433 0.500000 
750 1 0.447990 0.252817 0.500000 
751 1 0.457558 0.270341 0.500000 
752 1 0.467910 0.253670 0.500000 
753 1 0.477515 0.271115 0.500000 
754 1 0.487875 0.254425 0.500000 
755 1 0.507792 0.255186 0.500000 
756 1 0.527727 0.255888 0.500000 
757 1 0.547642 0.256587 0.500000 
758 1 0.567560 0.257183 0.500000 
759 1 0.587469 0.257783 0.500000 
760 1 0.607396 0.258318 0.500000 
761 1 0.627315 0.258826 0.500000 
762 1 0.647259 0.259315 0.500000 
763 1 0.667223 0.259745 0.500000 
764 1 0.687185 0.260118 0.500000 
765 1 0.707144 0.260452 0.500000 
766 1 0.727113 0.260770 0.500000 
767 1 0.747106 0.261039 0.500000 
768 1 0.767101 0.261242 0.500000 
769 1 0.787100 0.261415 0.500000 
770 1 0.807098 0.261568 0.500000 
771 1 0.827081 0.261713 0.500000 
772 1 0.847077 0.261866 0.500000 
773 1 0.867092 0.261980 0.500000 
774 1 0.887105 0.262086 0.500000 
775 1 0.907106 0.262176 0.500000 
776 1 0.927131 0.262271 0.500000 
777 1 0.947159 0.262387 0.500000 
778 1 0.967200 0.262468 0.500000 
779 1 0.987245 0.262544 0.500000 
780 1 0.015779 0.285121 0.500000 
781 1 0.035792 0.285753 0.500000 
782 1 0.055810 0.286400 0.500000 
783 1 0.075847 0.287102 0.500000 
784 1 0.095896 0.287838 0.500000 
785 1 0.106444 0.271447 0.500000 
786 1 0.115959 0.288553 0.500000 
787 1 0.126536 0.272203 0.500000 
788 1 0.136044 0.289317 0.500000 
789 1 0.146614 0.272965 0.500000 
790 1 0.156116 0.290093 0.500000 
791 1 0.166668 0.273749 0.500000 
792 1 0.176178 0.290931 0.500000 
793 1 0.186735 0.274618 0.500000 
794 1 0.206802 0.275467 0.500000 
795 1 0.226864 0.276316 0.500000 
796 1 0.246943 0.277192 0.500000 
797 1 0.267028 0.278073 0.500000 
798 1 0.287107 0.279023 0.500000 
799 1 0.307196 0.279959 0.500000 
800 1 0.327269 0.280955 0.500000 
801 1 0.347303 0.281991 0.500000 
802 1 0.367330 0.282997 0.500000 
803 1 0.387309 0.284052 0.500000 
804 1 0.407297 0.285052 0.500000 
805 1 0.427245 0.286013 0.500000 
806 1 0.447191 0.286984 0.500000 
807 1 0.467150 0.287831 0.500000 
808 1 0.497442 0.271940 0.500000 
809 1 0.487077 0.288669 0.500000 
810 1 0.507016 0.289448 0.500000 
811 1 0.517367 0.272666 0.500000 
812 1 0.526922 0.290191 0.500000 
813 1 0.537282 0.273367 0.500000 
814 1 0.546836 0.290823 0.500000 
815 1 0.557224 0.274019 0.500000 
816 1 0.577144 0.274640 0.500000 
817 1 0.597076 0.275179 0.500000 
818 1 0.617001 0.275716 0.500000 
819 1 0.636939 0.276203 0.500000 
820 1 0.656900 0.276652 0.500000 
821 1 0.676896 0.277043 0.500000 
822 1 0.696874 0.277403 0.500000 
823 1 0.716839 0.277719 0.500000 
824 1 0.736804 0.278009 0.500000 
825 1 0.756793 0.278225 0.500000 
826 1 0.776793 0.278410 0.500000 
827 1 0.796803 0.278558 0.500000 
828 1 0.816819 0.278699 0.500000 
829 1 0.836843 0.278843 0.500000 
830 1 0.856843 0.278962 0.500000 
831 1 0.876849 0.279072 0.500000 
832 1 0.896865 0.279142 0.500000 
833 1 0.916899 0.279219 0.500000 
834 1 0.936938 0.279317 0.500000 
835 1 0.956982 0.279417 0.500000 
836 1 0.977036 0.279488 0.500000 
837 1 0.997089 0.279555 0.500000 
838 1 0.005284 0.301547 0.500000 
839 1 0.025288 0.302175 0.500000 
840 1 0.045299 0.302815 0.500000 
841 1 0.065313 0.303468 0.500000 
842 1 0.085360 0.304203 0.500000 
843 1 0.105417 0.304924 0.500000 
844 1 0.125467 0.305658 0.500000 
845 1 0.145528 0.306443 0.500000 
846 1 0.165593 0.307263 0.500000 
847 1 0.196250 0.291797 0.500000 
848 1 0.185682 0.308129 0.500000 
849 1 0.216330 0.292659 0.500000 
850 1 0.205774 0.308992 0.500000 
851 1 0.236427 0.293533 0.500000 
852 1 0.225871 0.309864 0.500000 
853 1 0.256507 0.294432 0.500000 
854 1 0.245967 0.310762 0.500000 
855 1 0.276573 0.295368 0.500000 
856 1 0.266047 0.311689 0.500000 
857 1 0.296686 0.296329 0.500000 
858 1 0.316759 0.297332 0.500000 
859 1 0.336810 0.298385 0.500000 
860 1 0.356851 0.299424 0.500000 
861 1 0.376855 0.300496 0.500000 
862 1 0.396863 0.301534 0.500000 
863 1 0.416839 0.302594 0.500000 
864 1 0.436785 0.303602 0.500000 
865 1 0.456747 0.304514 0.500000 
866 1 0.476691 0.305406 0.500000 
867 1 0.496634 0.306203 0.500000 
868 1 0.516543 0.306990 0.500000 
869 1 0.536464 0.307675 0.500000 
870 1 0.566779 0.291474 0.500000 
871 1 0.556385 0.308308 0.500000 
872 1 0.586743 0.292062 0.500000 
873 1 0.576347 0.308910 0.500000 
874 1 0.606677 0.292604 0.500000 
875 1 0.596320 0.309496 0.500000 
876 1 0.626620 0.293089 0.500000 
877 1 0.616281 0.309996 0.500000 
878 1 0.646569 0.293561 0.500000 
879 1 0.636232 0.310467 0.500000 
880 1 0.666557 0.293967 0.500000 
881 1 0.686541 0.294337 0.500000 