ITEM: TIMESTEP
2900
ITEM: NUMBER OF ATOMS
2850
ITEM: BOX BOUNDS ss ss pp
-28.0536 28.3253 
-28.9988 28.9984 
-0.5 0.5 
ITEM: ATOMS id type xs ys zs
1 1 0.012661 0.000000 0.500000 
2 1 0.032688 0.000597 0.500000 
3 1 0.052715 0.001202 0.500000 
4 1 0.072742 0.001814 0.500000 
5 1 0.092767 0.002433 0.500000 
6 1 0.112794 0.003060 0.500000 
7 1 0.132817 0.003697 0.500000 
8 1 0.152841 0.004338 0.500000 
9 1 0.172861 0.004988 0.500000 
10 1 0.192879 0.005643 0.500000 
11 1 0.212895 0.006305 0.500000 
12 1 0.232906 0.006973 0.500000 
13 1 0.252912 0.007645 0.500000 
14 1 0.272914 0.008319 0.500000 
15 1 0.292911 0.008997 0.500000 
16 1 0.312901 0.009676 0.500000 
17 1 0.332885 0.010356 0.500000 
18 1 0.352861 0.011033 0.500000 
19 1 0.372830 0.011707 0.500000 
20 1 0.392791 0.012376 0.500000 
21 1 0.022340 0.017073 0.500000 
22 1 0.042369 0.017677 0.500000 
23 1 0.062397 0.018289 0.500000 
24 1 0.082426 0.018911 0.500000 
25 1 0.102455 0.019539 0.500000 
26 1 0.122484 0.020177 0.500000 
27 1 0.142511 0.020822 0.500000 
28 1 0.162536 0.021475 0.500000 
29 1 0.182559 0.022136 0.500000 
30 1 0.202579 0.022803 0.500000 
31 1 0.222596 0.023475 0.500000 
32 1 0.242610 0.024155 0.500000 
33 1 0.262618 0.024839 0.500000 
34 1 0.282622 0.025527 0.500000 
35 1 0.302619 0.026217 0.500000 
36 1 0.322610 0.026908 0.500000 
37 1 0.342593 0.027600 0.500000 
38 1 0.362570 0.028289 0.500000 
39 1 0.382537 0.028974 0.500000 
40 1 0.402497 0.029655 0.500000 
41 1 0.412744 0.013039 0.500000 
42 1 0.422448 0.030326 0.500000 
43 1 0.432688 0.013694 0.500000 
44 1 0.442390 0.030989 0.500000 
45 1 0.452624 0.014337 0.500000 
46 1 0.462324 0.031639 0.500000 
47 1 0.472553 0.014968 0.500000 
48 1 0.482250 0.032276 0.500000 
49 1 0.492474 0.015584 0.500000 
50 1 0.512388 0.016184 0.500000 
51 1 0.532295 0.016766 0.500000 
52 1 0.552198 0.017330 0.500000 
53 1 0.572095 0.017873 0.500000 
54 1 0.591989 0.018396 0.500000 
55 1 0.611880 0.018896 0.500000 
56 1 0.631769 0.019373 0.500000 
57 1 0.651657 0.019829 0.500000 
58 1 0.671546 0.020261 0.500000 
59 1 0.691436 0.020670 0.500000 
60 1 0.711328 0.021058 0.500000 
61 1 0.731222 0.021423 0.500000 
62 1 0.751120 0.021768 0.500000 
63 1 0.771021 0.022094 0.500000 
64 1 0.790927 0.022399 0.500000 
65 1 0.810837 0.022687 0.500000 
66 1 0.830751 0.022958 0.500000 
67 1 0.850671 0.023211 0.500000 
68 1 0.870595 0.023449 0.500000 
69 1 0.890525 0.023674 0.500000 
70 1 0.910459 0.023884 0.500000 
71 1 0.930398 0.024080 0.500000 
72 1 0.950341 0.024267 0.500000 
73 1 0.970290 0.024443 0.500000 
74 1 0.990243 0.024606 0.500000 
75 1 0.011983 0.033545 0.500000 
76 1 0.032014 0.034148 0.500000 
77 1 0.021650 0.050615 0.500000 
78 1 0.052044 0.034760 0.500000 
79 1 0.041680 0.051227 0.500000 
80 1 0.072075 0.035381 0.500000 
81 1 0.061715 0.051847 0.500000 
82 1 0.092107 0.036012 0.500000 
83 1 0.081759 0.052482 0.500000 
84 1 0.112138 0.036650 0.500000 
85 1 0.132168 0.037297 0.500000 
86 1 0.152197 0.037952 0.500000 
87 1 0.172226 0.038617 0.500000 
88 1 0.192251 0.039288 0.500000 
89 1 0.212274 0.039967 0.500000 
90 1 0.232293 0.040654 0.500000 
91 1 0.252309 0.041345 0.500000 
92 1 0.272318 0.042042 0.500000 
93 1 0.292324 0.042743 0.500000 
94 1 0.312323 0.043447 0.500000 
95 1 0.332314 0.044150 0.500000 
96 1 0.352297 0.044856 0.500000 
97 1 0.372273 0.045557 0.500000 
98 1 0.392240 0.046254 0.500000 
99 1 0.412198 0.046944 0.500000 
100 1 0.432147 0.047626 0.500000 
101 1 0.452087 0.048297 0.500000 
102 1 0.472018 0.048954 0.500000 
103 1 0.502167 0.032896 0.500000 
104 1 0.491940 0.049595 0.500000 
105 1 0.522078 0.033498 0.500000 
106 1 0.511855 0.050220 0.500000 
107 1 0.541983 0.034081 0.500000 
108 1 0.531762 0.050823 0.500000 
109 1 0.561882 0.034643 0.500000 
110 1 0.551663 0.051406 0.500000 
111 1 0.581777 0.035184 0.500000 
112 1 0.571560 0.051966 0.500000 
113 1 0.601668 0.035702 0.500000 
114 1 0.591452 0.052503 0.500000 
115 1 0.621558 0.036195 0.500000 
116 1 0.641446 0.036666 0.500000 
117 1 0.661334 0.037110 0.500000 
118 1 0.681223 0.037533 0.500000 
119 1 0.701115 0.037931 0.500000 
120 1 0.721007 0.038307 0.500000 
121 1 0.740905 0.038660 0.500000 
122 1 0.760806 0.038993 0.500000 
123 1 0.780711 0.039305 0.500000 
124 1 0.800620 0.039597 0.500000 
125 1 0.820536 0.039873 0.500000 
126 1 0.840456 0.040130 0.500000 
127 1 0.860382 0.040369 0.500000 
128 1 0.880312 0.040595 0.500000 
129 1 0.900248 0.040807 0.500000 
130 1 0.920188 0.041005 0.500000 
131 1 0.940134 0.041192 0.500000 
132 1 0.960084 0.041368 0.500000 
133 1 0.980040 0.041531 0.500000 
134 1 1.000000 0.041686 0.500000 
135 1 0.011275 0.067077 0.500000 
136 1 0.031308 0.067688 0.500000 
137 1 0.051342 0.068307 0.500000 
138 1 0.071376 0.068936 0.500000 
139 1 0.091427 0.069592 0.500000 
140 1 0.101800 0.053123 0.500000 
141 1 0.111458 0.070258 0.500000 
142 1 0.121829 0.053779 0.500000 
143 1 0.131486 0.070922 0.500000 
144 1 0.141857 0.054440 0.500000 
145 1 0.151519 0.071598 0.500000 
146 1 0.161879 0.055117 0.500000 
147 1 0.171550 0.072294 0.500000 
148 1 0.181892 0.055787 0.500000 
149 1 0.201917 0.056464 0.500000 
150 1 0.221937 0.057164 0.500000 
151 1 0.241950 0.057864 0.500000 
152 1 0.261962 0.058569 0.500000 
153 1 0.281964 0.059288 0.500000 
154 1 0.301963 0.060006 0.500000 
155 1 0.321966 0.060714 0.500000 
156 1 0.341957 0.061430 0.500000 
157 1 0.361927 0.062153 0.500000 
158 1 0.381893 0.062863 0.500000 
159 1 0.401855 0.063565 0.500000 
160 1 0.421807 0.064263 0.500000 
161 1 0.441761 0.064953 0.500000 
162 1 0.461695 0.065636 0.500000 
163 1 0.481613 0.066283 0.500000 
164 1 0.501535 0.066926 0.500000 
165 1 0.521451 0.067540 0.500000 
166 1 0.541365 0.068136 0.500000 
167 1 0.561267 0.068718 0.500000 
168 1 0.581164 0.069268 0.500000 
169 1 0.601055 0.069798 0.500000 
170 1 0.611341 0.053013 0.500000 
171 1 0.620945 0.070282 0.500000 
172 1 0.631230 0.053499 0.500000 
173 1 0.640839 0.070766 0.500000 
174 1 0.651117 0.053960 0.500000 
175 1 0.671006 0.054396 0.500000 
176 1 0.660733 0.071208 0.500000 
177 1 0.690897 0.054806 0.500000 
178 1 0.680632 0.071631 0.500000 
179 1 0.710789 0.055192 0.500000 
180 1 0.700533 0.072037 0.500000 
181 1 0.730685 0.055554 0.500000 
182 1 0.720442 0.072411 0.500000 
183 1 0.750586 0.055894 0.500000 
184 1 0.770490 0.056213 0.500000 
185 1 0.790400 0.056511 0.500000 
186 1 0.810316 0.056789 0.500000 
187 1 0.830238 0.057049 0.500000 
188 1 0.850164 0.057294 0.500000 
189 1 0.870095 0.057522 0.500000 
190 1 0.890032 0.057734 0.500000 
191 1 0.909975 0.057934 0.500000 
192 1 0.929922 0.058120 0.500000 
193 1 0.949875 0.058294 0.500000 
194 1 0.969833 0.058458 0.500000 
195 1 0.989796 0.058613 0.500000 
196 1 0.020924 0.084144 0.500000 
197 1 0.040959 0.084763 0.500000 
198 1 0.060994 0.085390 0.500000 
199 1 0.081048 0.086042 0.500000 
200 1 0.101090 0.086728 0.500000 
201 1 0.121126 0.087402 0.500000 
202 1 0.141155 0.088074 0.500000 
203 1 0.161177 0.088772 0.500000 
204 1 0.191575 0.072968 0.500000 
205 1 0.181208 0.089467 0.500000 
206 1 0.211588 0.073675 0.500000 
207 1 0.201221 0.090172 0.500000 
208 1 0.221240 0.090890 0.500000 
209 1 0.231602 0.074384 0.500000 
210 1 0.241257 0.091606 0.500000 
211 1 0.251610 0.075090 0.500000 
212 1 0.261255 0.092339 0.500000 
213 1 0.271606 0.075815 0.500000 
214 1 0.291604 0.076549 0.500000 
215 1 0.311604 0.077265 0.500000 
216 1 0.331596 0.077990 0.500000 
217 1 0.351572 0.078737 0.500000 
218 1 0.371539 0.079461 0.500000 
219 1 0.391508 0.080175 0.500000 
220 1 0.411463 0.080888 0.500000 
221 1 0.431418 0.081585 0.500000 
222 1 0.451359 0.082287 0.500000 
223 1 0.471292 0.082970 0.500000 
224 1 0.491215 0.083616 0.500000 
225 1 0.511138 0.084258 0.500000 
226 1 0.531050 0.084869 0.500000 
227 1 0.550955 0.085468 0.500000 
228 1 0.570858 0.086033 0.500000 
229 1 0.590761 0.086579 0.500000 
230 1 0.610661 0.087087 0.500000 
231 1 0.630554 0.087566 0.500000 
232 1 0.650453 0.088033 0.500000 
233 1 0.670355 0.088458 0.500000 
234 1 0.690258 0.088868 0.500000 
235 1 0.710166 0.089257 0.500000 
236 1 0.730077 0.089621 0.500000 
237 1 0.740352 0.072762 0.500000 
238 1 0.750002 0.089954 0.500000 
239 1 0.760262 0.073087 0.500000 
240 1 0.769927 0.090265 0.500000 
241 1 0.780175 0.073385 0.500000 
242 1 0.789859 0.090549 0.500000 
243 1 0.800095 0.073661 0.500000 
244 1 0.809788 0.090824 0.500000 
245 1 0.820021 0.073940 0.500000 
246 1 0.829723 0.091092 0.500000 
247 1 0.839948 0.074194 0.500000 
248 1 0.849658 0.091330 0.500000 
249 1 0.859880 0.074429 0.500000 
250 1 0.869604 0.091555 0.500000 
251 1 0.879818 0.074644 0.500000 
252 1 0.889553 0.091768 0.500000 
253 1 0.899761 0.074854 0.500000 
254 1 0.909507 0.091961 0.500000 
255 1 0.919711 0.075045 0.500000 
256 1 0.929458 0.092160 0.500000 
257 1 0.939657 0.075230 0.500000 
258 1 0.949407 0.092323 0.500000 
259 1 0.959621 0.075390 0.500000 
260 1 0.979588 0.075542 0.500000 
261 1 0.999557 0.075685 0.500000 
262 1 0.010532 0.100598 0.500000 
263 1 0.030566 0.101214 0.500000 
264 1 0.050602 0.101839 0.500000 
265 1 0.070640 0.102476 0.500000 
266 1 0.090673 0.103164 0.500000 
267 1 0.110721 0.103854 0.500000 
268 1 0.130773 0.104534 0.500000 
269 1 0.150798 0.105240 0.500000 
270 1 0.170834 0.105932 0.500000 
271 1 0.190858 0.106659 0.500000 
272 1 0.210870 0.107378 0.500000 
273 1 0.230893 0.108099 0.500000 
274 1 0.250899 0.108848 0.500000 
275 1 0.270903 0.109593 0.500000 
276 1 0.281251 0.093070 0.500000 
277 1 0.290902 0.110339 0.500000 
278 1 0.301252 0.093810 0.500000 
279 1 0.310896 0.111091 0.500000 
280 1 0.321245 0.094541 0.500000 
281 1 0.330882 0.111844 0.500000 
282 1 0.341229 0.095297 0.500000 
283 1 0.361201 0.096057 0.500000 
284 1 0.381170 0.096778 0.500000 
285 1 0.401128 0.097504 0.500000 
286 1 0.421077 0.098215 0.500000 
287 1 0.441018 0.098928 0.500000 
288 1 0.460952 0.099626 0.500000 
289 1 0.480888 0.100308 0.500000 
290 1 0.500816 0.100959 0.500000 
291 1 0.520736 0.101598 0.500000 
292 1 0.540648 0.102209 0.500000 
293 1 0.560558 0.102799 0.500000 
294 1 0.580464 0.103350 0.500000 
295 1 0.600373 0.103882 0.500000 
296 1 0.620272 0.104375 0.500000 
297 1 0.640173 0.104849 0.500000 
298 1 0.660083 0.105293 0.500000 
299 1 0.679994 0.105704 0.500000 
300 1 0.699907 0.106099 0.500000 
301 1 0.719818 0.106474 0.500000 
302 1 0.739742 0.106816 0.500000 
303 1 0.759667 0.107145 0.500000 
304 1 0.779594 0.107432 0.500000 
305 1 0.799531 0.107715 0.500000 
306 1 0.819477 0.107980 0.500000 
307 1 0.839429 0.108233 0.500000 
308 1 0.859375 0.108460 0.500000 
309 1 0.879322 0.108678 0.500000 
310 1 0.899275 0.108879 0.500000 
311 1 0.919235 0.109071 0.500000 
312 1 0.939203 0.109255 0.500000 
313 1 0.969375 0.092475 0.500000 
314 1 0.959160 0.109410 0.500000 
315 1 0.989349 0.092617 0.500000 
316 1 0.979136 0.109550 0.500000 
317 1 0.999117 0.109681 0.500000 
318 1 0.020165 0.117663 0.500000 
319 1 0.040201 0.118287 0.500000 
320 1 0.060239 0.118920 0.500000 
321 1 0.080284 0.119599 0.500000 
322 1 0.100329 0.120288 0.500000 
323 1 0.120378 0.120973 0.500000 
324 1 0.140409 0.121692 0.500000 
325 1 0.160446 0.122386 0.500000 
326 1 0.180467 0.123122 0.500000 
327 1 0.200492 0.123863 0.500000 
328 1 0.220521 0.124581 0.500000 
329 1 0.240532 0.125340 0.500000 
330 1 0.260537 0.126098 0.500000 
331 1 0.280539 0.126858 0.500000 
332 1 0.300541 0.127626 0.500000 
333 1 0.320538 0.128394 0.500000 
334 1 0.340523 0.129169 0.500000 
335 1 0.350862 0.112624 0.500000 
336 1 0.360497 0.129946 0.500000 
337 1 0.370840 0.113373 0.500000 
338 1 0.380458 0.130709 0.500000 
339 1 0.390803 0.114114 0.500000 
340 1 0.400410 0.131468 0.500000 
341 1 0.410750 0.114848 0.500000 
342 1 0.420358 0.132201 0.500000 
343 1 0.430694 0.115569 0.500000 
344 1 0.450630 0.116288 0.500000 
345 1 0.470562 0.116983 0.500000 
346 1 0.490495 0.117657 0.500000 
347 1 0.510417 0.118313 0.500000 
348 1 0.530340 0.118940 0.500000 
349 1 0.550253 0.119545 0.500000 
350 1 0.570166 0.120120 0.500000 
351 1 0.590083 0.120655 0.500000 
352 1 0.609999 0.121175 0.500000 
353 1 0.629903 0.121659 0.500000 
354 1 0.649812 0.122117 0.500000 
355 1 0.669726 0.122548 0.500000 
356 1 0.689647 0.122947 0.500000 
357 1 0.709572 0.123334 0.500000 
358 1 0.729489 0.123683 0.500000 
359 1 0.749412 0.124017 0.500000 
360 1 0.769344 0.124326 0.500000 
361 1 0.789281 0.124604 0.500000 
362 1 0.809233 0.124869 0.500000 
363 1 0.829190 0.125123 0.500000 
364 1 0.849142 0.125366 0.500000 
365 1 0.869099 0.125583 0.500000 
366 1 0.889058 0.125793 0.500000 
367 1 0.909017 0.125988 0.500000 
368 1 0.928978 0.126172 0.500000 
369 1 0.948940 0.126349 0.500000 
370 1 0.968919 0.126487 0.500000 
371 1 0.988905 0.126616 0.500000 
372 1 0.009754 0.134110 0.500000 
373 1 0.029790 0.134729 0.500000 
374 1 0.019367 0.151171 0.500000 
375 1 0.049825 0.135360 0.500000 
376 1 0.039403 0.151799 0.500000 
377 1 0.069865 0.136003 0.500000 
378 1 0.089921 0.136719 0.500000 
379 1 0.109965 0.137416 0.500000 
380 1 0.130000 0.138130 0.500000 
381 1 0.150049 0.138838 0.500000 
382 1 0.170079 0.139574 0.500000 
383 1 0.190101 0.140329 0.500000 
384 1 0.210128 0.141059 0.500000 
385 1 0.230143 0.141820 0.500000 
386 1 0.250162 0.142585 0.500000 
387 1 0.270176 0.143357 0.500000 
388 1 0.290182 0.144135 0.500000 
389 1 0.310183 0.144923 0.500000 
390 1 0.330172 0.145709 0.500000 
391 1 0.350156 0.146500 0.500000 
392 1 0.370120 0.147290 0.500000 
393 1 0.390081 0.148062 0.500000 
394 1 0.410042 0.148826 0.500000 
395 1 0.440299 0.132941 0.500000 
396 1 0.429985 0.149579 0.500000 
397 1 0.460237 0.133660 0.500000 
398 1 0.449929 0.150323 0.500000 
399 1 0.480165 0.134348 0.500000 
400 1 0.469865 0.151038 0.500000 
401 1 0.500091 0.135020 0.500000 
402 1 0.489793 0.151722 0.500000 
403 1 0.520018 0.135665 0.500000 
404 1 0.539938 0.136288 0.500000 
405 1 0.559857 0.136878 0.500000 
406 1 0.579776 0.137429 0.500000 
407 1 0.599702 0.137963 0.500000 
408 1 0.619623 0.138471 0.500000 
409 1 0.639539 0.138933 0.500000 
410 1 0.659454 0.139379 0.500000 
411 1 0.679380 0.139800 0.500000 
412 1 0.699302 0.140190 0.500000 
413 1 0.719227 0.140559 0.500000 
414 1 0.739153 0.140893 0.500000 
415 1 0.759088 0.141219 0.500000 
416 1 0.779030 0.141499 0.500000 
417 1 0.798983 0.141763 0.500000 
418 1 0.818936 0.142014 0.500000 
419 1 0.838895 0.142264 0.500000 
420 1 0.858860 0.142482 0.500000 
421 1 0.878832 0.142693 0.500000 
422 1 0.898795 0.142905 0.500000 
423 1 0.918755 0.143092 0.500000 
424 1 0.938725 0.143269 0.500000 
425 1 0.958701 0.143428 0.500000 
426 1 0.978689 0.143555 0.500000 
427 1 0.998682 0.143674 0.500000 
428 1 0.008938 0.167610 0.500000 
429 1 0.028972 0.168234 0.500000 
430 1 0.049008 0.168868 0.500000 
431 1 0.059442 0.152437 0.500000 
432 1 0.069047 0.169517 0.500000 
433 1 0.079492 0.153126 0.500000 
434 1 0.089111 0.170252 0.500000 
435 1 0.099542 0.153850 0.500000 
436 1 0.109170 0.170986 0.500000 
437 1 0.119582 0.154564 0.500000 
438 1 0.139634 0.155276 0.500000 
439 1 0.129221 0.171704 0.500000 
440 1 0.159673 0.156018 0.500000 
441 1 0.179703 0.156776 0.500000 
442 1 0.199737 0.157529 0.500000 
443 1 0.219750 0.158290 0.500000 
444 1 0.239778 0.159058 0.500000 
445 1 0.259801 0.159834 0.500000 
446 1 0.279813 0.160627 0.500000 
447 1 0.299817 0.161425 0.500000 
448 1 0.319811 0.162241 0.500000 
449 1 0.339794 0.163034 0.500000 
450 1 0.359766 0.163848 0.500000 
451 1 0.379735 0.164639 0.500000 
452 1 0.399704 0.165416 0.500000 
453 1 0.419661 0.166210 0.500000 
454 1 0.439604 0.166968 0.500000 
455 1 0.459550 0.167707 0.500000 
456 1 0.479480 0.168418 0.500000 
457 1 0.499400 0.169105 0.500000 
458 1 0.509718 0.152390 0.500000 
459 1 0.519325 0.169774 0.500000 
460 1 0.529638 0.153028 0.500000 
461 1 0.539249 0.170398 0.500000 
462 1 0.549558 0.153639 0.500000 
463 1 0.559176 0.170986 0.500000 
464 1 0.569475 0.154211 0.500000 
465 1 0.579093 0.171548 0.500000 
466 1 0.589393 0.154751 0.500000 
467 1 0.609318 0.155275 0.500000 
468 1 0.629250 0.155758 0.500000 
469 1 0.649171 0.156219 0.500000 
470 1 0.669097 0.156641 0.500000 
471 1 0.689023 0.157053 0.500000 
472 1 0.708955 0.157426 0.500000 
473 1 0.728895 0.157775 0.500000 
474 1 0.748839 0.158095 0.500000 
475 1 0.768786 0.158401 0.500000 
476 1 0.788727 0.158665 0.500000 
477 1 0.808678 0.158922 0.500000 
478 1 0.828642 0.159158 0.500000 
479 1 0.848607 0.159389 0.500000 
480 1 0.868572 0.159593 0.500000 
481 1 0.888542 0.159813 0.500000 
482 1 0.908522 0.160011 0.500000 
483 1 0.928500 0.160189 0.500000 
484 1 0.948477 0.160370 0.500000 
485 1 0.968470 0.160496 0.500000 
486 1 0.988467 0.160611 0.500000 
487 1 0.018532 0.184668 0.500000 
488 1 0.038566 0.185299 0.500000 
489 1 0.058602 0.185942 0.500000 
490 1 0.078658 0.186640 0.500000 
491 1 0.098713 0.187383 0.500000 
492 1 0.118772 0.188117 0.500000 
493 1 0.138818 0.188874 0.500000 
494 1 0.149254 0.172453 0.500000 
495 1 0.158868 0.189638 0.500000 
496 1 0.169285 0.173209 0.500000 
497 1 0.178908 0.190400 0.500000 
498 1 0.189320 0.173971 0.500000 
499 1 0.198942 0.191183 0.500000 
500 1 0.209353 0.174752 0.500000 
501 1 0.218989 0.191964 0.500000 
502 1 0.229386 0.175515 0.500000 
503 1 0.249413 0.176302 0.500000 
504 1 0.269429 0.177100 0.500000 
505 1 0.289440 0.177914 0.500000 
506 1 0.309435 0.178746 0.500000 
507 1 0.329431 0.179564 0.500000 
508 1 0.349413 0.180380 0.500000 
509 1 0.369387 0.181202 0.500000 
510 1 0.389349 0.182001 0.500000 
511 1 0.409301 0.182809 0.500000 
512 1 0.429256 0.183604 0.500000 
513 1 0.449205 0.184354 0.500000 
514 1 0.469141 0.185104 0.500000 
515 1 0.489063 0.185814 0.500000 
516 1 0.508989 0.186498 0.500000 
517 1 0.528926 0.187154 0.500000 
518 1 0.548854 0.187763 0.500000 
519 1 0.568774 0.188346 0.500000 
520 1 0.588694 0.188898 0.500000 
521 1 0.599009 0.172087 0.500000 
522 1 0.608631 0.189409 0.500000 
523 1 0.618933 0.172577 0.500000 
524 1 0.628565 0.189893 0.500000 
525 1 0.638861 0.173057 0.500000 
526 1 0.648499 0.190343 0.500000 
527 1 0.658796 0.173492 0.500000 
528 1 0.668436 0.190767 0.500000 
529 1 0.678724 0.173909 0.500000 
530 1 0.688378 0.191161 0.500000 
531 1 0.698665 0.174293 0.500000 
532 1 0.718612 0.174648 0.500000 
533 1 0.738562 0.174977 0.500000 
534 1 0.758512 0.175285 0.500000 
535 1 0.778468 0.175571 0.500000 
536 1 0.798430 0.175828 0.500000 
537 1 0.818402 0.176061 0.500000 
538 1 0.838369 0.176294 0.500000 
539 1 0.858340 0.176511 0.500000 
540 1 0.878309 0.176722 0.500000 
541 1 0.898290 0.176922 0.500000 
542 1 0.918274 0.177112 0.500000 
543 1 0.938254 0.177294 0.500000 
544 1 0.958249 0.177440 0.500000 
545 1 0.978251 0.177553 0.500000 
546 1 0.998258 0.177659 0.500000 
547 1 0.008083 0.201103 0.500000 
548 1 0.028113 0.201727 0.500000 
549 1 0.048147 0.202367 0.500000 
550 1 0.068185 0.203017 0.500000 
551 1 0.088255 0.203773 0.500000 
552 1 0.108317 0.204517 0.500000 
553 1 0.128363 0.205278 0.500000 
554 1 0.148418 0.206045 0.500000 
555 1 0.168481 0.206814 0.500000 
556 1 0.188519 0.207602 0.500000 
557 1 0.208562 0.208383 0.500000 
558 1 0.239016 0.192759 0.500000 
559 1 0.228599 0.209201 0.500000 
560 1 0.259036 0.193569 0.500000 
561 1 0.248627 0.210026 0.500000 
562 1 0.279048 0.194387 0.500000 
563 1 0.268649 0.210853 0.500000 
564 1 0.299050 0.195231 0.500000 
565 1 0.288658 0.211704 0.500000 
566 1 0.319055 0.196067 0.500000 
567 1 0.339048 0.196904 0.500000 
568 1 0.359031 0.197737 0.500000 
569 1 0.379005 0.198574 0.500000 
570 1 0.398958 0.199400 0.500000 
571 1 0.418914 0.200215 0.500000 
572 1 0.438875 0.201000 0.500000 
573 1 0.458812 0.201771 0.500000 
574 1 0.478742 0.202518 0.500000 
575 1 0.498670 0.203223 0.500000 
576 1 0.518601 0.203896 0.500000 
577 1 0.538531 0.204536 0.500000 
578 1 0.558457 0.205134 0.500000 
579 1 0.578384 0.205715 0.500000 
580 1 0.598314 0.206236 0.500000 
581 1 0.618250 0.206727 0.500000 
582 1 0.638197 0.207193 0.500000 
583 1 0.658144 0.207628 0.500000 
584 1 0.678088 0.208035 0.500000 
585 1 0.708326 0.191526 0.500000 
586 1 0.698036 0.208407 0.500000 
587 1 0.728283 0.191865 0.500000 
588 1 0.717995 0.208748 0.500000 
589 1 0.748236 0.192176 0.500000 
590 1 0.737957 0.209074 0.500000 
591 1 0.768196 0.192467 0.500000 
592 1 0.757924 0.209360 0.500000 
593 1 0.788163 0.192728 0.500000 
594 1 0.777895 0.209633 0.500000 
595 1 0.808142 0.192969 0.500000 
596 1 0.797874 0.209879 0.500000 
597 1 0.828120 0.193196 0.500000 
598 1 0.817860 0.210111 0.500000 
599 1 0.848099 0.193421 0.500000 
600 1 0.837842 0.210325 0.500000 
601 1 0.868075 0.193640 0.500000 
602 1 0.857827 0.210549 0.500000 
603 1 0.888058 0.193837 0.500000 
604 1 0.877820 0.210758 0.500000 
605 1 0.908047 0.194024 0.500000 
606 1 0.897813 0.210945 0.500000 
607 1 0.928035 0.194219 0.500000 
608 1 0.917805 0.211125 0.500000 
609 1 0.948021 0.194385 0.500000 
610 1 0.937806 0.211311 0.500000 
611 1 0.957807 0.211443 0.500000 
612 1 0.968031 0.194496 0.500000 
613 1 0.977825 0.211543 0.500000 
614 1 0.988043 0.194599 0.500000 
615 1 0.997847 0.211634 0.500000 
616 1 0.017654 0.218157 0.500000 
617 1 0.037684 0.218790 0.500000 
618 1 0.057718 0.219436 0.500000 
619 1 0.077771 0.220141 0.500000 
620 1 0.097835 0.220901 0.500000 
621 1 0.117897 0.221671 0.500000 
622 1 0.137954 0.222436 0.500000 
623 1 0.158018 0.223204 0.500000 
624 1 0.178066 0.224005 0.500000 
625 1 0.198115 0.224797 0.500000 
626 1 0.218157 0.225619 0.500000 
627 1 0.238199 0.226459 0.500000 
628 1 0.258241 0.227298 0.500000 
629 1 0.278253 0.228157 0.500000 
630 1 0.298276 0.229020 0.500000 
631 1 0.308667 0.212546 0.500000 
632 1 0.318283 0.229885 0.500000 
633 1 0.328672 0.213406 0.500000 
634 1 0.338280 0.230767 0.500000 
635 1 0.348663 0.214261 0.500000 
636 1 0.358262 0.231651 0.500000 
637 1 0.368637 0.215120 0.500000 
638 1 0.388599 0.215976 0.500000 
639 1 0.408552 0.216811 0.500000 
640 1 0.428515 0.217625 0.500000 
641 1 0.448458 0.218429 0.500000 
642 1 0.468386 0.219201 0.500000 
643 1 0.488318 0.219937 0.500000 
644 1 0.508253 0.220640 0.500000 
645 1 0.528189 0.221298 0.500000 
646 1 0.548122 0.221917 0.500000 
647 1 0.568045 0.222513 0.500000 
648 1 0.587984 0.223069 0.500000 
649 1 0.607922 0.223570 0.500000 
650 1 0.627865 0.224039 0.500000 
651 1 0.647819 0.224483 0.500000 
652 1 0.667782 0.224898 0.500000 
653 1 0.687747 0.225289 0.500000 
654 1 0.707715 0.225642 0.500000 
655 1 0.727675 0.225969 0.500000 
656 1 0.747651 0.226260 0.500000 
657 1 0.767629 0.226535 0.500000 
658 1 0.787616 0.226788 0.500000 
659 1 0.807606 0.227025 0.500000 
660 1 0.827596 0.227250 0.500000 
661 1 0.847578 0.227460 0.500000 
662 1 0.867576 0.227666 0.500000 
663 1 0.887581 0.227865 0.500000 
664 1 0.907581 0.228051 0.500000 
665 1 0.927576 0.228220 0.500000 
666 1 0.947580 0.228392 0.500000 
667 1 0.967605 0.228489 0.500000 
668 1 0.987634 0.228577 0.500000 
669 1 0.007189 0.234587 0.500000 
670 1 0.027214 0.235215 0.500000 
671 1 0.047243 0.235854 0.500000 
672 1 0.067275 0.236508 0.500000 
673 1 0.087332 0.237268 0.500000 
674 1 0.107405 0.238036 0.500000 
675 1 0.127480 0.238822 0.500000 
676 1 0.147535 0.239589 0.500000 
677 1 0.167580 0.240388 0.500000 
678 1 0.187643 0.241193 0.500000 
679 1 0.207693 0.242022 0.500000 
680 1 0.227747 0.242864 0.500000 
681 1 0.247801 0.243713 0.500000 
682 1 0.267830 0.244591 0.500000 
683 1 0.287854 0.245461 0.500000 
684 1 0.307873 0.246353 0.500000 
685 1 0.327879 0.247248 0.500000 
686 1 0.347877 0.248158 0.500000 
687 1 0.378229 0.232537 0.500000 
688 1 0.367851 0.249078 0.500000 
689 1 0.398192 0.233402 0.500000 
690 1 0.387823 0.249964 0.500000 
691 1 0.418145 0.234235 0.500000 
692 1 0.407789 0.250841 0.500000 
693 1 0.438095 0.235070 0.500000 
694 1 0.427736 0.251700 0.500000 
695 1 0.458035 0.235871 0.500000 
696 1 0.477970 0.236636 0.500000 
697 1 0.497900 0.237369 0.500000 
698 1 0.517840 0.238055 0.500000 
699 1 0.537777 0.238694 0.500000 
700 1 0.557705 0.239313 0.500000 
701 1 0.577643 0.239882 0.500000 
702 1 0.597589 0.240412 0.500000 
703 1 0.617543 0.240893 0.500000 
704 1 0.637503 0.241339 0.500000 
705 1 0.657471 0.241761 0.500000 
706 1 0.677444 0.242162 0.500000 
707 1 0.697421 0.242524 0.500000 
708 1 0.717390 0.242870 0.500000 
709 1 0.737367 0.243166 0.500000 
710 1 0.757352 0.243443 0.500000 
711 1 0.777339 0.243698 0.500000 
712 1 0.797326 0.243937 0.500000 
713 1 0.817323 0.244164 0.500000 
714 1 0.837324 0.244386 0.500000 
715 1 0.857323 0.244584 0.500000 
716 1 0.877326 0.244778 0.500000 
717 1 0.897339 0.244964 0.500000 
718 1 0.917354 0.245140 0.500000 
719 1 0.937366 0.245304 0.500000 
720 1 0.957383 0.245436 0.500000 
721 1 0.977417 0.245522 0.500000 
722 1 0.997455 0.245600 0.500000 
723 1 0.016737 0.251640 0.500000 
724 1 0.006256 0.268068 0.500000 
725 1 0.036760 0.252274 0.500000 
726 1 0.026272 0.268696 0.500000 
727 1 0.056787 0.252921 0.500000 
728 1 0.046292 0.269335 0.500000 
729 1 0.076836 0.253640 0.500000 
730 1 0.066319 0.269991 0.500000 
731 1 0.096894 0.254396 0.500000 
732 1 0.086372 0.270759 0.500000 
733 1 0.116967 0.255175 0.500000 
734 1 0.137041 0.255968 0.500000 
735 1 0.157091 0.256767 0.500000 
736 1 0.177144 0.257566 0.500000 
737 1 0.197201 0.258403 0.500000 
738 1 0.217270 0.259247 0.500000 
739 1 0.237335 0.260108 0.500000 
740 1 0.257378 0.261003 0.500000 
741 1 0.277419 0.261885 0.500000 
742 1 0.297449 0.262791 0.500000 
743 1 0.317467 0.263710 0.500000 
744 1 0.337475 0.264637 0.500000 
745 1 0.357459 0.265582 0.500000 
746 1 0.377440 0.266501 0.500000 
747 1 0.397412 0.267410 0.500000 
748 1 0.417371 0.268306 0.500000 
749 1 0.437323 0.269175 0.500000 
750 1 0.447684 0.252531 0.500000 
751 1 0.457271 0.270016 0.500000 
752 1 0.467625 0.253325 0.500000 
753 1 0.477203 0.270819 0.500000 
754 1 0.487555 0.254096 0.500000 
755 1 0.507492 0.254808 0.500000 
756 1 0.527426 0.255473 0.500000 
757 1 0.547357 0.256112 0.500000 
758 1 0.567297 0.256694 0.500000 
759 1 0.587245 0.257244 0.500000 
760 1 0.607202 0.257743 0.500000 
761 1 0.627164 0.258204 0.500000 
762 1 0.647131 0.258631 0.500000 
763 1 0.667105 0.259039 0.500000 
764 1 0.687091 0.259404 0.500000 
765 1 0.707069 0.259762 0.500000 
766 1 0.727054 0.260079 0.500000 
767 1 0.747046 0.260359 0.500000 
768 1 0.767048 0.260608 0.500000 
769 1 0.787054 0.260856 0.500000 
770 1 0.807057 0.261077 0.500000 
771 1 0.827068 0.261296 0.500000 
772 1 0.847083 0.261507 0.500000 
773 1 0.867092 0.261696 0.500000 
774 1 0.887108 0.261875 0.500000 
775 1 0.907126 0.262049 0.500000 
776 1 0.927147 0.262220 0.500000 
777 1 0.947159 0.262387 0.500000 
778 1 0.967200 0.262468 0.500000 
779 1 0.987245 0.262544 0.500000 
780 1 0.015779 0.285121 0.500000 
781 1 0.035792 0.285753 0.500000 
782 1 0.055810 0.286400 0.500000 
783 1 0.075848 0.287102 0.500000 
784 1 0.095911 0.287882 0.500000 
785 1 0.106430 0.271526 0.500000 
786 1 0.115975 0.288664 0.500000 
787 1 0.126502 0.272312 0.500000 
788 1 0.136042 0.289456 0.500000 
789 1 0.146578 0.273121 0.500000 
790 1 0.156114 0.290280 0.500000 
791 1 0.166643 0.273936 0.500000 
792 1 0.176176 0.291119 0.500000 
793 1 0.186694 0.274765 0.500000 
794 1 0.206762 0.275609 0.500000 
795 1 0.226838 0.276483 0.500000 
796 1 0.246895 0.277391 0.500000 
797 1 0.266949 0.278290 0.500000 
798 1 0.286989 0.279206 0.500000 
799 1 0.307027 0.280144 0.500000 
800 1 0.327054 0.281088 0.500000 
801 1 0.347060 0.282058 0.500000 
802 1 0.367049 0.283007 0.500000 
803 1 0.387023 0.283949 0.500000 
804 1 0.406991 0.284884 0.500000 
805 1 0.426947 0.285802 0.500000 
806 1 0.446891 0.286680 0.500000 
807 1 0.466828 0.287528 0.500000 
808 1 0.497139 0.271555 0.500000 
809 1 0.486762 0.288298 0.500000 
810 1 0.506696 0.289032 0.500000 
811 1 0.517071 0.272257 0.500000 
812 1 0.526638 0.289709 0.500000 
813 1 0.537005 0.272912 0.500000 
814 1 0.546588 0.290343 0.500000 
815 1 0.556948 0.273520 0.500000 
816 1 0.576895 0.274077 0.500000 
817 1 0.596857 0.274594 0.500000 
818 1 0.616831 0.275072 0.500000 
819 1 0.636804 0.275507 0.500000 
820 1 0.656778 0.275919 0.500000 
821 1 0.676770 0.276290 0.500000 
822 1 0.696766 0.276649 0.500000 
823 1 0.716771 0.276979 0.500000 
824 1 0.736780 0.277278 0.500000 
825 1 0.756786 0.277538 0.500000 
826 1 0.776795 0.277766 0.500000 
827 1 0.796808 0.278001 0.500000 
828 1 0.816821 0.278209 0.500000 
829 1 0.836838 0.278412 0.500000 
830 1 0.856863 0.278612 0.500000 
831 1 0.876883 0.278794 0.500000 
832 1 0.896906 0.278961 0.500000 
833 1 0.916927 0.279132 0.500000 
834 1 0.936953 0.279299 0.500000 
835 1 0.956982 0.279417 0.500000 
836 1 0.977036 0.279488 0.500000 
837 1 0.997089 0.279555 0.500000 
838 1 0.005284 0.301547 0.500000 
839 1 0.025288 0.302175 0.500000 
840 1 0.045299 0.302815 0.500000 
841 1 0.065313 0.303468 0.500000 
842 1 0.085355 0.304221 0.500000 
843 1 0.105415 0.305008 0.500000 
844 1 0.125480 0.305801 0.500000 
845 1 0.145546 0.306612 0.500000 
846 1 0.165614 0.307454 0.500000 
847 1 0.196240 0.291966 0.500000 
848 1 0.185684 0.308303 0.500000 
849 1 0.216307 0.292837 0.500000 
850 1 0.205760 0.309175 0.500000 
851 1 0.236372 0.293744 0.500000 
852 1 0.225831 0.310079 0.500000 
853 1 0.256446 0.294660 0.500000 
854 1 0.245914 0.310990 0.500000 
855 1 0.276501 0.295596 0.500000 
856 1 0.265986 0.311945 0.500000 
857 1 0.296548 0.296543 0.500000 
858 1 0.316595 0.297508 0.500000 
859 1 0.336623 0.298495 0.500000 
860 1 0.356636 0.299484 0.500000 
861 1 0.376622 0.300467 0.500000 
862 1 0.396596 0.301438 0.500000 
863 1 0.416556 0.302398 0.500000 
864 1 0.436501 0.303332 0.500000 
865 1 0.456435 0.304212 0.500000 
866 1 0.476374 0.305035 0.500000 
867 1 0.496313 0.305796 0.500000 
868 1 0.516257 0.306513 0.500000 
869 1 0.536208 0.307161 0.500000 
870 1 0.566545 0.290920 0.500000 
871 1 0.556167 0.307760 0.500000 
872 1 0.586507 0.291452 0.500000 
873 1 0.576137 0.308310 0.500000 
874 1 0.606477 0.291943 0.500000 
875 1 0.596117 0.308815 0.500000 
876 1 0.626461 0.292390 0.500000 
877 1 0.616113 0.309270 0.500000 
878 1 0.646452 0.292801 0.500000 
879 1 0.636111 0.309692 0.500000 
880 1 0.666456 0.293184 0.500000 
881 1 0.686458 0.293542 0.500000 