ITEM: TIMESTEP
2300
ITEM: NUMBER OF ATOMS
2850
ITEM: BOX BOUNDS ss ss pp
-28.0536 28.3253 
-28.9988 28.9984 
-0.5 0.5 
ITEM: ATOMS id type xs ys zs
1 1 0.012661 0.000000 0.500000 
2 1 0.032688 0.000597 0.500000 
3 1 0.052715 0.001202 0.500000 
4 1 0.072742 0.001814 0.500000 
5 1 0.092767 0.002433 0.500000 
6 1 0.112794 0.003060 0.500000 
7 1 0.132817 0.003697 0.500000 
8 1 0.152841 0.004338 0.500000 
9 1 0.172861 0.004988 0.500000 
10 1 0.192879 0.005643 0.500000 
11 1 0.212895 0.006305 0.500000 
12 1 0.232906 0.006973 0.500000 
13 1 0.252912 0.007645 0.500000 
14 1 0.272914 0.008319 0.500000 
15 1 0.292911 0.008997 0.500000 
16 1 0.312901 0.009676 0.500000 
17 1 0.332885 0.010356 0.500000 
18 1 0.352861 0.011033 0.500000 
19 1 0.372830 0.011707 0.500000 
20 1 0.392791 0.012376 0.500000 
21 1 0.022340 0.017073 0.500000 
22 1 0.042369 0.017677 0.500000 
23 1 0.062397 0.018289 0.500000 
24 1 0.082426 0.018911 0.500000 
25 1 0.102455 0.019539 0.500000 
26 1 0.122484 0.020177 0.500000 
27 1 0.142511 0.020822 0.500000 
28 1 0.162536 0.021475 0.500000 
29 1 0.182559 0.022136 0.500000 
30 1 0.202579 0.022803 0.500000 
31 1 0.222596 0.023475 0.500000 
32 1 0.242610 0.024155 0.500000 
33 1 0.262618 0.024839 0.500000 
34 1 0.282622 0.025527 0.500000 
35 1 0.302619 0.026217 0.500000 
36 1 0.322610 0.026908 0.500000 
37 1 0.342593 0.027600 0.500000 
38 1 0.362570 0.028289 0.500000 
39 1 0.382537 0.028974 0.500000 
40 1 0.402497 0.029655 0.500000 
41 1 0.412744 0.013039 0.500000 
42 1 0.422448 0.030326 0.500000 
43 1 0.432688 0.013694 0.500000 
44 1 0.442390 0.030989 0.500000 
45 1 0.452624 0.014337 0.500000 
46 1 0.462324 0.031639 0.500000 
47 1 0.472553 0.014968 0.500000 
48 1 0.482250 0.032276 0.500000 
49 1 0.492474 0.015584 0.500000 
50 1 0.512388 0.016184 0.500000 
51 1 0.532295 0.016766 0.500000 
52 1 0.552198 0.017330 0.500000 
53 1 0.572095 0.017873 0.500000 
54 1 0.591989 0.018396 0.500000 
55 1 0.611880 0.018896 0.500000 
56 1 0.631769 0.019373 0.500000 
57 1 0.651657 0.019829 0.500000 
58 1 0.671546 0.020261 0.500000 
59 1 0.691436 0.020670 0.500000 
60 1 0.711328 0.021058 0.500000 
61 1 0.731222 0.021423 0.500000 
62 1 0.751120 0.021768 0.500000 
63 1 0.771021 0.022094 0.500000 
64 1 0.790927 0.022399 0.500000 
65 1 0.810837 0.022687 0.500000 
66 1 0.830751 0.022958 0.500000 
67 1 0.850671 0.023211 0.500000 
68 1 0.870595 0.023449 0.500000 
69 1 0.890525 0.023674 0.500000 
70 1 0.910459 0.023884 0.500000 
71 1 0.930398 0.024080 0.500000 
72 1 0.950341 0.024267 0.500000 
73 1 0.970290 0.024443 0.500000 
74 1 0.990243 0.024606 0.500000 
75 1 0.011983 0.033545 0.500000 
76 1 0.032014 0.034148 0.500000 
77 1 0.021650 0.050615 0.500000 
78 1 0.052044 0.034760 0.500000 
79 1 0.041680 0.051227 0.500000 
80 1 0.072075 0.035381 0.500000 
81 1 0.061715 0.051847 0.500000 
82 1 0.092107 0.036012 0.500000 
83 1 0.081751 0.052478 0.500000 
84 1 0.112138 0.036650 0.500000 
85 1 0.132168 0.037297 0.500000 
86 1 0.152197 0.037952 0.500000 
87 1 0.172226 0.038617 0.500000 
88 1 0.192251 0.039288 0.500000 
89 1 0.212274 0.039967 0.500000 
90 1 0.232293 0.040654 0.500000 
91 1 0.252309 0.041345 0.500000 
92 1 0.272318 0.042042 0.500000 
93 1 0.292324 0.042743 0.500000 
94 1 0.312323 0.043447 0.500000 
95 1 0.332314 0.044150 0.500000 
96 1 0.352297 0.044856 0.500000 
97 1 0.372273 0.045557 0.500000 
98 1 0.392240 0.046254 0.500000 
99 1 0.412198 0.046944 0.500000 
100 1 0.432147 0.047626 0.500000 
101 1 0.452087 0.048297 0.500000 
102 1 0.472018 0.048954 0.500000 
103 1 0.502167 0.032896 0.500000 
104 1 0.491940 0.049595 0.500000 
105 1 0.522078 0.033498 0.500000 
106 1 0.511855 0.050220 0.500000 
107 1 0.541983 0.034081 0.500000 
108 1 0.531762 0.050823 0.500000 
109 1 0.561882 0.034643 0.500000 
110 1 0.551663 0.051406 0.500000 
111 1 0.581777 0.035184 0.500000 
112 1 0.571560 0.051966 0.500000 
113 1 0.601668 0.035702 0.500000 
114 1 0.591452 0.052503 0.500000 
115 1 0.621558 0.036195 0.500000 
116 1 0.641446 0.036666 0.500000 
117 1 0.661334 0.037110 0.500000 
118 1 0.681223 0.037533 0.500000 
119 1 0.701115 0.037931 0.500000 
120 1 0.721007 0.038307 0.500000 
121 1 0.740905 0.038660 0.500000 
122 1 0.760806 0.038993 0.500000 
123 1 0.780711 0.039305 0.500000 
124 1 0.800620 0.039597 0.500000 
125 1 0.820536 0.039873 0.500000 
126 1 0.840456 0.040130 0.500000 
127 1 0.860382 0.040369 0.500000 
128 1 0.880312 0.040595 0.500000 
129 1 0.900248 0.040807 0.500000 
130 1 0.920188 0.041005 0.500000 
131 1 0.940134 0.041192 0.500000 
132 1 0.960084 0.041368 0.500000 
133 1 0.980040 0.041531 0.500000 
134 1 1.000000 0.041686 0.500000 
135 1 0.011275 0.067077 0.500000 
136 1 0.031308 0.067688 0.500000 
137 1 0.051342 0.068307 0.500000 
138 1 0.071376 0.068936 0.500000 
139 1 0.091423 0.069584 0.500000 
140 1 0.101798 0.053124 0.500000 
141 1 0.111466 0.070242 0.500000 
142 1 0.121846 0.053777 0.500000 
143 1 0.131511 0.070906 0.500000 
144 1 0.141877 0.054435 0.500000 
145 1 0.151547 0.071586 0.500000 
146 1 0.161902 0.055109 0.500000 
147 1 0.171570 0.072273 0.500000 
148 1 0.181932 0.055786 0.500000 
149 1 0.201949 0.056492 0.500000 
150 1 0.221965 0.057187 0.500000 
151 1 0.241988 0.057890 0.500000 
152 1 0.261992 0.058608 0.500000 
153 1 0.281978 0.059312 0.500000 
154 1 0.301977 0.060031 0.500000 
155 1 0.321960 0.060759 0.500000 
156 1 0.341941 0.061459 0.500000 
157 1 0.361925 0.062170 0.500000 
158 1 0.381876 0.062881 0.500000 
159 1 0.401833 0.063576 0.500000 
160 1 0.421779 0.064289 0.500000 
161 1 0.441718 0.064970 0.500000 
162 1 0.461654 0.065631 0.500000 
163 1 0.481570 0.066299 0.500000 
164 1 0.501481 0.066911 0.500000 
165 1 0.521395 0.067540 0.500000 
166 1 0.541317 0.068150 0.500000 
167 1 0.561228 0.068731 0.500000 
168 1 0.581120 0.069276 0.500000 
169 1 0.601009 0.069800 0.500000 
170 1 0.611341 0.053013 0.500000 
171 1 0.620906 0.070295 0.500000 
172 1 0.631230 0.053499 0.500000 
173 1 0.640807 0.070773 0.500000 
174 1 0.651117 0.053960 0.500000 
175 1 0.671006 0.054396 0.500000 
176 1 0.660704 0.071233 0.500000 
177 1 0.690897 0.054806 0.500000 
178 1 0.680612 0.071640 0.500000 
179 1 0.710789 0.055192 0.500000 
180 1 0.700512 0.072031 0.500000 
181 1 0.730685 0.055554 0.500000 
182 1 0.720422 0.072409 0.500000 
183 1 0.750586 0.055894 0.500000 
184 1 0.770490 0.056213 0.500000 
185 1 0.790400 0.056511 0.500000 
186 1 0.810316 0.056789 0.500000 
187 1 0.830238 0.057049 0.500000 
188 1 0.850164 0.057294 0.500000 
189 1 0.870095 0.057522 0.500000 
190 1 0.890032 0.057734 0.500000 
191 1 0.909975 0.057934 0.500000 
192 1 0.929922 0.058120 0.500000 
193 1 0.949875 0.058294 0.500000 
194 1 0.969833 0.058458 0.500000 
195 1 0.989796 0.058613 0.500000 
196 1 0.020924 0.084144 0.500000 
197 1 0.040959 0.084763 0.500000 
198 1 0.060994 0.085390 0.500000 
199 1 0.081051 0.086045 0.500000 
200 1 0.101094 0.086706 0.500000 
201 1 0.121148 0.087366 0.500000 
202 1 0.141194 0.088055 0.500000 
203 1 0.161221 0.088760 0.500000 
204 1 0.191595 0.072992 0.500000 
205 1 0.181234 0.089466 0.500000 
206 1 0.211621 0.073700 0.500000 
207 1 0.201259 0.090193 0.500000 
208 1 0.221290 0.090907 0.500000 
209 1 0.231649 0.074409 0.500000 
210 1 0.241302 0.091652 0.500000 
211 1 0.251664 0.075149 0.500000 
212 1 0.261305 0.092423 0.500000 
213 1 0.271642 0.075875 0.500000 
214 1 0.291625 0.076584 0.500000 
215 1 0.311610 0.077338 0.500000 
216 1 0.331581 0.078054 0.500000 
217 1 0.351553 0.078752 0.500000 
218 1 0.371512 0.079507 0.500000 
219 1 0.391470 0.080205 0.500000 
220 1 0.411420 0.080926 0.500000 
221 1 0.431366 0.081633 0.500000 
222 1 0.451307 0.082297 0.500000 
223 1 0.471212 0.082993 0.500000 
224 1 0.491142 0.083626 0.500000 
225 1 0.511056 0.084251 0.500000 
226 1 0.530967 0.084861 0.500000 
227 1 0.550876 0.085469 0.500000 
228 1 0.570789 0.086044 0.500000 
229 1 0.590698 0.086572 0.500000 
230 1 0.610592 0.087084 0.500000 
231 1 0.630485 0.087565 0.500000 
232 1 0.650381 0.088046 0.500000 
233 1 0.670295 0.088472 0.500000 
234 1 0.690203 0.088868 0.500000 
235 1 0.710121 0.089263 0.500000 
236 1 0.730038 0.089621 0.500000 
237 1 0.740352 0.072773 0.500000 
238 1 0.749977 0.089976 0.500000 
239 1 0.760259 0.073084 0.500000 
240 1 0.769911 0.090283 0.500000 
241 1 0.780169 0.073405 0.500000 
242 1 0.789858 0.090581 0.500000 
243 1 0.800098 0.073672 0.500000 
244 1 0.809777 0.090851 0.500000 
245 1 0.820025 0.073945 0.500000 
246 1 0.829708 0.091097 0.500000 
247 1 0.839959 0.074187 0.500000 
248 1 0.849651 0.091357 0.500000 
249 1 0.859887 0.074446 0.500000 
250 1 0.869610 0.091575 0.500000 
251 1 0.879824 0.074662 0.500000 
252 1 0.889553 0.091793 0.500000 
253 1 0.899764 0.074872 0.500000 
254 1 0.909501 0.091978 0.500000 
255 1 0.919716 0.075033 0.500000 
256 1 0.929446 0.092145 0.500000 
257 1 0.939668 0.075222 0.500000 
258 1 0.949407 0.092323 0.500000 
259 1 0.959621 0.075390 0.500000 
260 1 0.979588 0.075542 0.500000 
261 1 0.999557 0.075685 0.500000 
262 1 0.010532 0.100598 0.500000 
263 1 0.030566 0.101214 0.500000 
264 1 0.050602 0.101839 0.500000 
265 1 0.070640 0.102476 0.500000 
266 1 0.090710 0.103158 0.500000 
267 1 0.110760 0.103823 0.500000 
268 1 0.130803 0.104511 0.500000 
269 1 0.150849 0.105229 0.500000 
270 1 0.170875 0.105945 0.500000 
271 1 0.190890 0.106671 0.500000 
272 1 0.210913 0.107395 0.500000 
273 1 0.230923 0.108152 0.500000 
274 1 0.250935 0.108918 0.500000 
275 1 0.270963 0.109694 0.500000 
276 1 0.281284 0.093138 0.500000 
277 1 0.290941 0.110430 0.500000 
278 1 0.301262 0.093875 0.500000 
279 1 0.310899 0.111188 0.500000 
280 1 0.321242 0.094637 0.500000 
281 1 0.330878 0.111938 0.500000 
282 1 0.341216 0.095350 0.500000 
283 1 0.361166 0.096110 0.500000 
284 1 0.381130 0.096839 0.500000 
285 1 0.401076 0.097556 0.500000 
286 1 0.421016 0.098270 0.500000 
287 1 0.440965 0.098953 0.500000 
288 1 0.460883 0.099677 0.500000 
289 1 0.480810 0.100326 0.500000 
290 1 0.500726 0.100975 0.500000 
291 1 0.520650 0.101598 0.500000 
292 1 0.540566 0.102203 0.500000 
293 1 0.560471 0.102802 0.500000 
294 1 0.580380 0.103351 0.500000 
295 1 0.600280 0.103878 0.500000 
296 1 0.620179 0.104376 0.500000 
297 1 0.640076 0.104865 0.500000 
298 1 0.659996 0.105289 0.500000 
299 1 0.679911 0.105716 0.500000 
300 1 0.699818 0.106114 0.500000 
301 1 0.719743 0.106496 0.500000 
302 1 0.739674 0.106825 0.500000 
303 1 0.759618 0.107169 0.500000 
304 1 0.779564 0.107474 0.500000 
305 1 0.799507 0.107775 0.500000 
306 1 0.819443 0.108026 0.500000 
307 1 0.839386 0.108267 0.500000 
308 1 0.859352 0.108494 0.500000 
309 1 0.879295 0.108710 0.500000 
310 1 0.899250 0.108910 0.500000 
311 1 0.919220 0.109087 0.500000 
312 1 0.939197 0.109243 0.500000 
313 1 0.969375 0.092475 0.500000 
314 1 0.959160 0.109410 0.500000 
315 1 0.989349 0.092617 0.500000 
316 1 0.979136 0.109550 0.500000 
317 1 0.999117 0.109681 0.500000 
318 1 0.020165 0.117663 0.500000 
319 1 0.040201 0.118287 0.500000 
320 1 0.060239 0.118920 0.500000 
321 1 0.080294 0.119581 0.500000 
322 1 0.100348 0.120272 0.500000 
323 1 0.120397 0.120964 0.500000 
324 1 0.140436 0.121670 0.500000 
325 1 0.160479 0.122400 0.500000 
326 1 0.180515 0.123133 0.500000 
327 1 0.200553 0.123875 0.500000 
328 1 0.220570 0.124644 0.500000 
329 1 0.240561 0.125422 0.500000 
330 1 0.260569 0.126178 0.500000 
331 1 0.280589 0.126978 0.500000 
332 1 0.300570 0.127750 0.500000 
333 1 0.320534 0.128486 0.500000 
334 1 0.340495 0.129286 0.500000 
335 1 0.350829 0.112710 0.500000 
336 1 0.360452 0.130045 0.500000 
337 1 0.370792 0.113449 0.500000 
338 1 0.380399 0.130790 0.500000 
339 1 0.390745 0.114190 0.500000 
340 1 0.400349 0.131552 0.500000 
341 1 0.410679 0.114913 0.500000 
342 1 0.420279 0.132283 0.500000 
343 1 0.430611 0.115616 0.500000 
344 1 0.450532 0.116344 0.500000 
345 1 0.470474 0.117027 0.500000 
346 1 0.490408 0.117691 0.500000 
347 1 0.510331 0.118321 0.500000 
348 1 0.530252 0.118943 0.500000 
349 1 0.550146 0.119559 0.500000 
350 1 0.570048 0.120136 0.500000 
351 1 0.589952 0.120682 0.500000 
352 1 0.609866 0.121193 0.500000 
353 1 0.629784 0.121681 0.500000 
354 1 0.649713 0.122131 0.500000 
355 1 0.669621 0.122561 0.500000 
356 1 0.689544 0.122979 0.500000 
357 1 0.709470 0.123358 0.500000 
358 1 0.729402 0.123701 0.500000 
359 1 0.749332 0.124037 0.500000 
360 1 0.769276 0.124359 0.500000 
361 1 0.789224 0.124669 0.500000 
362 1 0.809178 0.124944 0.500000 
363 1 0.829136 0.125190 0.500000 
364 1 0.849095 0.125408 0.500000 
365 1 0.869059 0.125639 0.500000 
366 1 0.889023 0.125838 0.500000 
367 1 0.908994 0.126023 0.500000 
368 1 0.928971 0.126187 0.500000 
369 1 0.948940 0.126349 0.500000 
370 1 0.968919 0.126487 0.500000 
371 1 0.988905 0.126616 0.500000 
372 1 0.009754 0.134110 0.500000 
373 1 0.029790 0.134729 0.500000 
374 1 0.019367 0.151171 0.500000 
375 1 0.049825 0.135360 0.500000 
376 1 0.039403 0.151799 0.500000 
377 1 0.069865 0.136003 0.500000 
378 1 0.089920 0.136702 0.500000 
379 1 0.109987 0.137398 0.500000 
380 1 0.130041 0.138125 0.500000 
381 1 0.150083 0.138839 0.500000 
382 1 0.170132 0.139573 0.500000 
383 1 0.190165 0.140330 0.500000 
384 1 0.210190 0.141102 0.500000 
385 1 0.230209 0.141905 0.500000 
386 1 0.250222 0.142672 0.500000 
387 1 0.270212 0.143459 0.500000 
388 1 0.290222 0.144270 0.500000 
389 1 0.310208 0.145057 0.500000 
390 1 0.330151 0.145835 0.500000 
391 1 0.350135 0.146631 0.500000 
392 1 0.370093 0.147406 0.500000 
393 1 0.390032 0.148153 0.500000 
394 1 0.409973 0.148925 0.500000 
395 1 0.440202 0.133019 0.500000 
396 1 0.429891 0.149679 0.500000 
397 1 0.460140 0.133723 0.500000 
398 1 0.449828 0.150396 0.500000 
399 1 0.480076 0.134387 0.500000 
400 1 0.469757 0.151087 0.500000 
401 1 0.500007 0.135046 0.500000 
402 1 0.489671 0.151759 0.500000 
403 1 0.519918 0.135672 0.500000 
404 1 0.539827 0.136317 0.500000 
405 1 0.559740 0.136913 0.500000 
406 1 0.579644 0.137483 0.500000 
407 1 0.599553 0.138008 0.500000 
408 1 0.619475 0.138500 0.500000 
409 1 0.639398 0.138959 0.500000 
410 1 0.659311 0.139413 0.500000 
411 1 0.679241 0.139830 0.500000 
412 1 0.699183 0.140226 0.500000 
413 1 0.719131 0.140577 0.500000 
414 1 0.739059 0.140917 0.500000 
415 1 0.759000 0.141252 0.500000 
416 1 0.778944 0.141552 0.500000 
417 1 0.798906 0.141840 0.500000 
418 1 0.818869 0.142093 0.500000 
419 1 0.838844 0.142338 0.500000 
420 1 0.858814 0.142553 0.500000 
421 1 0.878800 0.142765 0.500000 
422 1 0.898771 0.142959 0.500000 
423 1 0.918749 0.143128 0.500000 
424 1 0.938728 0.143290 0.500000 
425 1 0.958701 0.143428 0.500000 
426 1 0.978689 0.143555 0.500000 
427 1 0.998682 0.143674 0.500000 
428 1 0.008938 0.167610 0.500000 
429 1 0.028972 0.168234 0.500000 
430 1 0.049008 0.168868 0.500000 
431 1 0.059442 0.152437 0.500000 
432 1 0.069047 0.169517 0.500000 
433 1 0.079493 0.153123 0.500000 
434 1 0.089112 0.170223 0.500000 
435 1 0.099546 0.153810 0.500000 
436 1 0.109178 0.170933 0.500000 
437 1 0.119611 0.154543 0.500000 
438 1 0.139680 0.155284 0.500000 
439 1 0.129243 0.171684 0.500000 
440 1 0.159729 0.156012 0.500000 
441 1 0.179770 0.156769 0.500000 
442 1 0.199789 0.157551 0.500000 
443 1 0.219814 0.158345 0.500000 
444 1 0.239859 0.159145 0.500000 
445 1 0.259860 0.159947 0.500000 
446 1 0.279853 0.160739 0.500000 
447 1 0.299852 0.161580 0.500000 
448 1 0.319819 0.162422 0.500000 
449 1 0.339788 0.163194 0.500000 
450 1 0.359761 0.164007 0.500000 
451 1 0.379716 0.164779 0.500000 
452 1 0.399654 0.165542 0.500000 
453 1 0.419580 0.166327 0.500000 
454 1 0.439514 0.167046 0.500000 
455 1 0.459438 0.167773 0.500000 
456 1 0.479362 0.168480 0.500000 
457 1 0.499283 0.169154 0.500000 
458 1 0.509594 0.152427 0.500000 
459 1 0.519204 0.169823 0.500000 
460 1 0.529512 0.153064 0.500000 
461 1 0.539106 0.170461 0.500000 
462 1 0.549437 0.153685 0.500000 
463 1 0.559021 0.171058 0.500000 
464 1 0.569352 0.154277 0.500000 
465 1 0.578944 0.171633 0.500000 
466 1 0.589248 0.154823 0.500000 
467 1 0.609155 0.155322 0.500000 
468 1 0.629085 0.155796 0.500000 
469 1 0.649015 0.156257 0.500000 
470 1 0.668947 0.156686 0.500000 
471 1 0.688877 0.157096 0.500000 
472 1 0.708828 0.157449 0.500000 
473 1 0.728778 0.157806 0.500000 
474 1 0.748717 0.158125 0.500000 
475 1 0.768665 0.158458 0.500000 
476 1 0.788621 0.158738 0.500000 
477 1 0.808595 0.159002 0.500000 
478 1 0.828572 0.159241 0.500000 
479 1 0.848552 0.159471 0.500000 
480 1 0.868537 0.159676 0.500000 
481 1 0.888520 0.159898 0.500000 
482 1 0.908509 0.160066 0.500000 
483 1 0.928498 0.160230 0.500000 
484 1 0.948477 0.160370 0.500000 
485 1 0.968470 0.160496 0.500000 
486 1 0.988467 0.160611 0.500000 
487 1 0.018532 0.184668 0.500000 
488 1 0.038566 0.185299 0.500000 
489 1 0.058602 0.185942 0.500000 
490 1 0.078662 0.186613 0.500000 
491 1 0.098721 0.187329 0.500000 
492 1 0.118781 0.188074 0.500000 
493 1 0.138853 0.188832 0.500000 
494 1 0.149303 0.172442 0.500000 
495 1 0.158918 0.189594 0.500000 
496 1 0.169363 0.173190 0.500000 
497 1 0.178966 0.190400 0.500000 
498 1 0.189395 0.173993 0.500000 
499 1 0.199020 0.191221 0.500000 
500 1 0.209419 0.174793 0.500000 
501 1 0.219066 0.192035 0.500000 
502 1 0.229456 0.175584 0.500000 
503 1 0.249491 0.176432 0.500000 
504 1 0.269501 0.177230 0.500000 
505 1 0.289489 0.178062 0.500000 
506 1 0.309478 0.178956 0.500000 
507 1 0.329472 0.179778 0.500000 
508 1 0.349422 0.180579 0.500000 
509 1 0.369369 0.181388 0.500000 
510 1 0.389317 0.182168 0.500000 
511 1 0.409265 0.182965 0.500000 
512 1 0.429227 0.183714 0.500000 
513 1 0.449143 0.184470 0.500000 
514 1 0.469051 0.185185 0.500000 
515 1 0.488977 0.185885 0.500000 
516 1 0.508889 0.186570 0.500000 
517 1 0.528802 0.187227 0.500000 
518 1 0.548733 0.187852 0.500000 
519 1 0.568651 0.188446 0.500000 
520 1 0.588571 0.188997 0.500000 
521 1 0.598855 0.172152 0.500000 
522 1 0.608494 0.189491 0.500000 
523 1 0.618771 0.172644 0.500000 
524 1 0.628418 0.189978 0.500000 
525 1 0.638684 0.173104 0.500000 
526 1 0.648338 0.190409 0.500000 
527 1 0.658615 0.173546 0.500000 
528 1 0.668286 0.190827 0.500000 
529 1 0.678554 0.173962 0.500000 
530 1 0.688244 0.191198 0.500000 
531 1 0.698516 0.174326 0.500000 
532 1 0.718477 0.174677 0.500000 
533 1 0.738433 0.175025 0.500000 
534 1 0.758376 0.175339 0.500000 
535 1 0.778345 0.175645 0.500000 
536 1 0.798321 0.175914 0.500000 
537 1 0.818298 0.176154 0.500000 
538 1 0.838273 0.176386 0.500000 
539 1 0.858263 0.176597 0.500000 
540 1 0.878247 0.176812 0.500000 
541 1 0.898250 0.177011 0.500000 
542 1 0.918244 0.177163 0.500000 
543 1 0.938244 0.177314 0.500000 
544 1 0.958249 0.177440 0.500000 
545 1 0.978251 0.177553 0.500000 
546 1 0.998258 0.177659 0.500000 
547 1 0.008083 0.201103 0.500000 
548 1 0.028113 0.201727 0.500000 
549 1 0.048147 0.202367 0.500000 
550 1 0.068185 0.203017 0.500000 
551 1 0.088256 0.203721 0.500000 
552 1 0.108311 0.204469 0.500000 
553 1 0.128383 0.205212 0.500000 
554 1 0.148462 0.205992 0.500000 
555 1 0.168514 0.206793 0.500000 
556 1 0.188569 0.207603 0.500000 
557 1 0.208638 0.208443 0.500000 
558 1 0.239081 0.192872 0.500000 
559 1 0.228662 0.209311 0.500000 
560 1 0.259124 0.193708 0.500000 
561 1 0.248686 0.210132 0.500000 
562 1 0.279131 0.194558 0.500000 
563 1 0.268705 0.211010 0.500000 
564 1 0.299112 0.195442 0.500000 
565 1 0.288707 0.211919 0.500000 
566 1 0.319129 0.196297 0.500000 
567 1 0.339111 0.197148 0.500000 
568 1 0.359059 0.197973 0.500000 
569 1 0.379014 0.198784 0.500000 
570 1 0.398955 0.199606 0.500000 
571 1 0.418912 0.200371 0.500000 
572 1 0.438839 0.201168 0.500000 
573 1 0.458762 0.201901 0.500000 
574 1 0.478677 0.202614 0.500000 
575 1 0.498595 0.203325 0.500000 
576 1 0.518523 0.203999 0.500000 
577 1 0.538431 0.204635 0.500000 
578 1 0.558341 0.205261 0.500000 
579 1 0.578249 0.205833 0.500000 
580 1 0.598180 0.206346 0.500000 
581 1 0.618130 0.206829 0.500000 
582 1 0.638076 0.207287 0.500000 
583 1 0.658018 0.207699 0.500000 
584 1 0.677970 0.208091 0.500000 
585 1 0.708205 0.191555 0.500000 
586 1 0.697926 0.208443 0.500000 
587 1 0.728164 0.191896 0.500000 
588 1 0.717884 0.208786 0.500000 
589 1 0.748124 0.192234 0.500000 
590 1 0.737848 0.209119 0.500000 
591 1 0.768088 0.192547 0.500000 
592 1 0.757819 0.209433 0.500000 
593 1 0.788054 0.192812 0.500000 
594 1 0.777801 0.209728 0.500000 
595 1 0.808033 0.193059 0.500000 
596 1 0.797776 0.209965 0.500000 
597 1 0.828010 0.193309 0.500000 
598 1 0.817759 0.210212 0.500000 
599 1 0.847992 0.193518 0.500000 
600 1 0.837752 0.210448 0.500000 
601 1 0.867969 0.193743 0.500000 
602 1 0.857726 0.210666 0.500000 
603 1 0.887972 0.193921 0.500000 
604 1 0.877719 0.210849 0.500000 
605 1 0.907998 0.194095 0.500000 
606 1 0.897732 0.210999 0.500000 
607 1 0.928009 0.194244 0.500000 
608 1 0.917766 0.211163 0.500000 
609 1 0.948021 0.194385 0.500000 
610 1 0.937793 0.211314 0.500000 
611 1 0.957807 0.211443 0.500000 
612 1 0.968031 0.194496 0.500000 
613 1 0.977825 0.211543 0.500000 
614 1 0.988043 0.194599 0.500000 
615 1 0.997847 0.211634 0.500000 
616 1 0.017654 0.218157 0.500000 
617 1 0.037684 0.218790 0.500000 
618 1 0.057718 0.219436 0.500000 
619 1 0.077790 0.220118 0.500000 
620 1 0.097843 0.220858 0.500000 
621 1 0.117901 0.221603 0.500000 
622 1 0.137970 0.222365 0.500000 
623 1 0.158049 0.223181 0.500000 
624 1 0.178109 0.223995 0.500000 
625 1 0.198153 0.224817 0.500000 
626 1 0.218195 0.225702 0.500000 
627 1 0.238247 0.226556 0.500000 
628 1 0.258274 0.227431 0.500000 
629 1 0.278283 0.228351 0.500000 
630 1 0.298320 0.229245 0.500000 
631 1 0.308726 0.212776 0.500000 
632 1 0.318321 0.230155 0.500000 
633 1 0.328728 0.213666 0.500000 
634 1 0.338309 0.231068 0.500000 
635 1 0.348702 0.214539 0.500000 
636 1 0.358289 0.231954 0.500000 
637 1 0.368662 0.215371 0.500000 
638 1 0.388614 0.216227 0.500000 
639 1 0.408576 0.217024 0.500000 
640 1 0.428498 0.217845 0.500000 
641 1 0.448432 0.218598 0.500000 
642 1 0.468353 0.219345 0.500000 
643 1 0.488277 0.220069 0.500000 
644 1 0.508207 0.220759 0.500000 
645 1 0.528118 0.221442 0.500000 
646 1 0.548022 0.222071 0.500000 
647 1 0.567942 0.222661 0.500000 
648 1 0.587878 0.223198 0.500000 
649 1 0.607803 0.223684 0.500000 
650 1 0.627732 0.224159 0.500000 
651 1 0.647673 0.224585 0.500000 
652 1 0.667628 0.224980 0.500000 
653 1 0.687599 0.225340 0.500000 
654 1 0.707585 0.225682 0.500000 
655 1 0.727554 0.226010 0.500000 
656 1 0.747531 0.226342 0.500000 
657 1 0.767507 0.226623 0.500000 
658 1 0.787497 0.226893 0.500000 
659 1 0.807486 0.227124 0.500000 
660 1 0.827487 0.227366 0.500000 
661 1 0.847477 0.227589 0.500000 
662 1 0.867472 0.227773 0.500000 
663 1 0.887493 0.227933 0.500000 
664 1 0.907514 0.228081 0.500000 
665 1 0.927541 0.228233 0.500000 
666 1 0.947580 0.228392 0.500000 
667 1 0.967605 0.228489 0.500000 
668 1 0.987634 0.228577 0.500000 
669 1 0.007189 0.234587 0.500000 
670 1 0.027214 0.235215 0.500000 
671 1 0.047243 0.235854 0.500000 
672 1 0.067275 0.236508 0.500000 
673 1 0.087338 0.237231 0.500000 
674 1 0.107397 0.237982 0.500000 
675 1 0.127470 0.238741 0.500000 
676 1 0.147535 0.239535 0.500000 
677 1 0.167616 0.240371 0.500000 
678 1 0.187678 0.241211 0.500000 
679 1 0.207718 0.242080 0.500000 
680 1 0.227790 0.242944 0.500000 
681 1 0.247848 0.243847 0.500000 
682 1 0.267859 0.244786 0.500000 
683 1 0.287883 0.245674 0.500000 
684 1 0.307904 0.246621 0.500000 
685 1 0.327910 0.247560 0.500000 
686 1 0.347911 0.248488 0.500000 
687 1 0.378247 0.232824 0.500000 
688 1 0.367899 0.249401 0.500000 
689 1 0.398218 0.233654 0.500000 
690 1 0.387879 0.250269 0.500000 
691 1 0.418161 0.234502 0.500000 
692 1 0.407819 0.251134 0.500000 
693 1 0.438114 0.235288 0.500000 
694 1 0.427777 0.251950 0.500000 
695 1 0.458034 0.236069 0.500000 
696 1 0.477954 0.236813 0.500000 
697 1 0.497882 0.237522 0.500000 
698 1 0.517818 0.238231 0.500000 
699 1 0.537747 0.238890 0.500000 
700 1 0.557667 0.239497 0.500000 
701 1 0.577582 0.240060 0.500000 
702 1 0.597497 0.240574 0.500000 
703 1 0.617434 0.241031 0.500000 
704 1 0.637393 0.241474 0.500000 
705 1 0.657359 0.241878 0.500000 
706 1 0.677325 0.242250 0.500000 
707 1 0.697301 0.242576 0.500000 
708 1 0.717280 0.242920 0.500000 
709 1 0.737256 0.243232 0.500000 
710 1 0.757245 0.243546 0.500000 
711 1 0.777221 0.243814 0.500000 
712 1 0.797222 0.244057 0.500000 
713 1 0.817212 0.244286 0.500000 
714 1 0.837219 0.244513 0.500000 
715 1 0.857232 0.244704 0.500000 
716 1 0.877253 0.244866 0.500000 
717 1 0.897278 0.245019 0.500000 
718 1 0.917310 0.245166 0.500000 
719 1 0.937339 0.245311 0.500000 
720 1 0.957383 0.245436 0.500000 
721 1 0.977417 0.245522 0.500000 
722 1 0.997455 0.245600 0.500000 
723 1 0.016737 0.251640 0.500000 
724 1 0.006256 0.268068 0.500000 
725 1 0.036760 0.252274 0.500000 
726 1 0.026272 0.268696 0.500000 
727 1 0.056787 0.252921 0.500000 
728 1 0.046292 0.269335 0.500000 
729 1 0.076843 0.253608 0.500000 
730 1 0.066319 0.269991 0.500000 
731 1 0.096903 0.254345 0.500000 
732 1 0.086384 0.270718 0.500000 
733 1 0.116968 0.255105 0.500000 
734 1 0.137029 0.255894 0.500000 
735 1 0.157094 0.256707 0.500000 
736 1 0.177174 0.257565 0.500000 
737 1 0.197235 0.258457 0.500000 
738 1 0.217306 0.259327 0.500000 
739 1 0.237358 0.260224 0.500000 
740 1 0.257393 0.261186 0.500000 
741 1 0.277455 0.262101 0.500000 
742 1 0.297481 0.263046 0.500000 
743 1 0.317505 0.264014 0.500000 
744 1 0.337516 0.264965 0.500000 
745 1 0.357509 0.265915 0.500000 
746 1 0.377505 0.266825 0.500000 
747 1 0.397465 0.267757 0.500000 
748 1 0.417420 0.268591 0.500000 
749 1 0.437373 0.269443 0.500000 
750 1 0.447721 0.252772 0.500000 
751 1 0.457304 0.270261 0.500000 
752 1 0.467660 0.253553 0.500000 
753 1 0.477231 0.271040 0.500000 
754 1 0.487587 0.254298 0.500000 
755 1 0.507499 0.255016 0.500000 
756 1 0.527413 0.255705 0.500000 
757 1 0.547329 0.256334 0.500000 
758 1 0.567254 0.256920 0.500000 
759 1 0.587193 0.257457 0.500000 
760 1 0.607134 0.257935 0.500000 
761 1 0.627076 0.258371 0.500000 
762 1 0.647033 0.258777 0.500000 
763 1 0.667006 0.259156 0.500000 
764 1 0.686998 0.259500 0.500000 
765 1 0.706985 0.259829 0.500000 
766 1 0.726958 0.260151 0.500000 
767 1 0.746932 0.260454 0.500000 
768 1 0.766932 0.260746 0.500000 
769 1 0.786933 0.260978 0.500000 
770 1 0.806936 0.261215 0.500000 
771 1 0.826934 0.261437 0.500000 
772 1 0.846953 0.261638 0.500000 
773 1 0.866995 0.261804 0.500000 
774 1 0.887032 0.261960 0.500000 
775 1 0.907073 0.262095 0.500000 
776 1 0.927119 0.262242 0.500000 
777 1 0.947159 0.262387 0.500000 
778 1 0.967200 0.262468 0.500000 
779 1 0.987245 0.262544 0.500000 
780 1 0.015779 0.285121 0.500000 
781 1 0.035792 0.285753 0.500000 
782 1 0.055810 0.286400 0.500000 
783 1 0.075845 0.287098 0.500000 
784 1 0.095898 0.287837 0.500000 
785 1 0.106448 0.271469 0.500000 
786 1 0.115964 0.288602 0.500000 
787 1 0.126510 0.272249 0.500000 
788 1 0.136033 0.289393 0.500000 
789 1 0.146575 0.273049 0.500000 
790 1 0.156095 0.290231 0.500000 
791 1 0.166647 0.273897 0.500000 
792 1 0.176159 0.291120 0.500000 
793 1 0.186704 0.274791 0.500000 
794 1 0.206772 0.275689 0.500000 
795 1 0.226835 0.276596 0.500000 
796 1 0.246883 0.277534 0.500000 
797 1 0.266967 0.278469 0.500000 
798 1 0.287021 0.279453 0.500000 
799 1 0.307056 0.280417 0.500000 
800 1 0.327090 0.281394 0.500000 
801 1 0.347090 0.282398 0.500000 
802 1 0.367094 0.283335 0.500000 
803 1 0.387076 0.284309 0.500000 
804 1 0.407062 0.285223 0.500000 
805 1 0.427011 0.286090 0.500000 
806 1 0.446939 0.286967 0.500000 
807 1 0.466878 0.287760 0.500000 
808 1 0.497143 0.271798 0.500000 
809 1 0.486796 0.288570 0.500000 
810 1 0.506715 0.289309 0.500000 
811 1 0.517068 0.272508 0.500000 
812 1 0.526632 0.290019 0.500000 
813 1 0.536994 0.273182 0.500000 
814 1 0.546576 0.290644 0.500000 
815 1 0.556913 0.273780 0.500000 
816 1 0.576853 0.274326 0.500000 
817 1 0.596805 0.274835 0.500000 
818 1 0.616759 0.275288 0.500000 
819 1 0.636711 0.275698 0.500000 
820 1 0.656688 0.276071 0.500000 
821 1 0.676671 0.276419 0.500000 
822 1 0.696651 0.276742 0.500000 
823 1 0.716644 0.277081 0.500000 
824 1 0.736623 0.277394 0.500000 
825 1 0.756621 0.277665 0.500000 
826 1 0.776635 0.277916 0.500000 
827 1 0.796633 0.278135 0.500000 
828 1 0.816636 0.278368 0.500000 
829 1 0.836653 0.278568 0.500000 
830 1 0.856713 0.278731 0.500000 
831 1 0.876769 0.278892 0.500000 
832 1 0.896837 0.279028 0.500000 
833 1 0.916891 0.279175 0.500000 
834 1 0.936943 0.279308 0.500000 
835 1 0.956982 0.279417 0.500000 
836 1 0.977036 0.279488 0.500000 
837 1 0.997089 0.279555 0.500000 
838 1 0.005284 0.301547 0.500000 
839 1 0.025288 0.302175 0.500000 
840 1 0.045299 0.302815 0.500000 
841 1 0.065313 0.303468 0.500000 
842 1 0.085352 0.304196 0.500000 
843 1 0.105409 0.304950 0.500000 
844 1 0.125461 0.305734 0.500000 
845 1 0.145507 0.306559 0.500000 
846 1 0.165573 0.307434 0.500000 
847 1 0.196229 0.292014 0.500000 
848 1 0.185653 0.308327 0.500000 
849 1 0.216300 0.292935 0.500000 
850 1 0.205729 0.309238 0.500000 
851 1 0.236358 0.293875 0.500000 
852 1 0.225808 0.310188 0.500000 
853 1 0.256435 0.294809 0.500000 
854 1 0.245899 0.311155 0.500000 
855 1 0.276513 0.295804 0.500000 
856 1 0.265976 0.312145 0.500000 
857 1 0.296587 0.296811 0.500000 
858 1 0.316620 0.297789 0.500000 
859 1 0.336633 0.298824 0.500000 
860 1 0.356659 0.299823 0.500000 
861 1 0.376640 0.300818 0.500000 
862 1 0.396633 0.301783 0.500000 
863 1 0.416616 0.302733 0.500000 
864 1 0.436562 0.303655 0.500000 
865 1 0.456516 0.304491 0.500000 
866 1 0.476426 0.305334 0.500000 
867 1 0.496344 0.306113 0.500000 
868 1 0.516256 0.306852 0.500000 
869 1 0.536196 0.307498 0.500000 
870 1 0.566517 0.291199 0.500000 
871 1 0.556143 0.308072 0.500000 
872 1 0.586463 0.291719 0.500000 
873 1 0.576106 0.308595 0.500000 
874 1 0.606438 0.292188 0.500000 
875 1 0.596093 0.309071 0.500000 
876 1 0.626408 0.292613 0.500000 
877 1 0.616069 0.309534 0.500000 
878 1 0.646388 0.292988 0.500000 
879 1 0.636044 0.309916 0.500000 
880 1 0.666376 0.293345 0.500000 
881 1 0.686364 0.293686 0.500000 