ITEM: TIMESTEP
2700
ITEM: NUMBER OF ATOMS
2850
ITEM: BOX BOUNDS ss ss pp
-28.0536 28.3253 
-28.9988 28.9984 
-0.5 0.5 
ITEM: ATOMS id type xs ys zs
1 1 0.012661 0.000000 0.500000 
2 1 0.032688 0.000597 0.500000 
3 1 0.052715 0.001202 0.500000 
4 1 0.072742 0.001814 0.500000 
5 1 0.092767 0.002433 0.500000 
6 1 0.112794 0.003060 0.500000 
7 1 0.132817 0.003697 0.500000 
8 1 0.152841 0.004338 0.500000 
9 1 0.172861 0.004988 0.500000 
10 1 0.192879 0.005643 0.500000 
11 1 0.212895 0.006305 0.500000 
12 1 0.232906 0.006973 0.500000 
13 1 0.252912 0.007645 0.500000 
14 1 0.272914 0.008319 0.500000 
15 1 0.292911 0.008997 0.500000 
16 1 0.312901 0.009676 0.500000 
17 1 0.332885 0.010356 0.500000 
18 1 0.352861 0.011033 0.500000 
19 1 0.372830 0.011707 0.500000 
20 1 0.392791 0.012376 0.500000 
21 1 0.022340 0.017073 0.500000 
22 1 0.042369 0.017677 0.500000 
23 1 0.062397 0.018289 0.500000 
24 1 0.082426 0.018911 0.500000 
25 1 0.102455 0.019539 0.500000 
26 1 0.122484 0.020177 0.500000 
27 1 0.142511 0.020822 0.500000 
28 1 0.162536 0.021475 0.500000 
29 1 0.182559 0.022136 0.500000 
30 1 0.202579 0.022803 0.500000 
31 1 0.222596 0.023475 0.500000 
32 1 0.242610 0.024155 0.500000 
33 1 0.262618 0.024839 0.500000 
34 1 0.282622 0.025527 0.500000 
35 1 0.302619 0.026217 0.500000 
36 1 0.322610 0.026908 0.500000 
37 1 0.342593 0.027600 0.500000 
38 1 0.362570 0.028289 0.500000 
39 1 0.382537 0.028974 0.500000 
40 1 0.402497 0.029655 0.500000 
41 1 0.412744 0.013039 0.500000 
42 1 0.422448 0.030326 0.500000 
43 1 0.432688 0.013694 0.500000 
44 1 0.442390 0.030989 0.500000 
45 1 0.452624 0.014337 0.500000 
46 1 0.462324 0.031639 0.500000 
47 1 0.472553 0.014968 0.500000 
48 1 0.482250 0.032276 0.500000 
49 1 0.492474 0.015584 0.500000 
50 1 0.512388 0.016184 0.500000 
51 1 0.532295 0.016766 0.500000 
52 1 0.552198 0.017330 0.500000 
53 1 0.572095 0.017873 0.500000 
54 1 0.591989 0.018396 0.500000 
55 1 0.611880 0.018896 0.500000 
56 1 0.631769 0.019373 0.500000 
57 1 0.651657 0.019829 0.500000 
58 1 0.671546 0.020261 0.500000 
59 1 0.691436 0.020670 0.500000 
60 1 0.711328 0.021058 0.500000 
61 1 0.731222 0.021423 0.500000 
62 1 0.751120 0.021768 0.500000 
63 1 0.771021 0.022094 0.500000 
64 1 0.790927 0.022399 0.500000 
65 1 0.810837 0.022687 0.500000 
66 1 0.830751 0.022958 0.500000 
67 1 0.850671 0.023211 0.500000 
68 1 0.870595 0.023449 0.500000 
69 1 0.890525 0.023674 0.500000 
70 1 0.910459 0.023884 0.500000 
71 1 0.930398 0.024080 0.500000 
72 1 0.950341 0.024267 0.500000 
73 1 0.970290 0.024443 0.500000 
74 1 0.990243 0.024606 0.500000 
75 1 0.011983 0.033545 0.500000 
76 1 0.032014 0.034148 0.500000 
77 1 0.021650 0.050615 0.500000 
78 1 0.052044 0.034760 0.500000 
79 1 0.041680 0.051227 0.500000 
80 1 0.072075 0.035381 0.500000 
81 1 0.061715 0.051847 0.500000 
82 1 0.092107 0.036012 0.500000 
83 1 0.081757 0.052484 0.500000 
84 1 0.112138 0.036650 0.500000 
85 1 0.132168 0.037297 0.500000 
86 1 0.152197 0.037952 0.500000 
87 1 0.172226 0.038617 0.500000 
88 1 0.192251 0.039288 0.500000 
89 1 0.212274 0.039967 0.500000 
90 1 0.232293 0.040654 0.500000 
91 1 0.252309 0.041345 0.500000 
92 1 0.272318 0.042042 0.500000 
93 1 0.292324 0.042743 0.500000 
94 1 0.312323 0.043447 0.500000 
95 1 0.332314 0.044150 0.500000 
96 1 0.352297 0.044856 0.500000 
97 1 0.372273 0.045557 0.500000 
98 1 0.392240 0.046254 0.500000 
99 1 0.412198 0.046944 0.500000 
100 1 0.432147 0.047626 0.500000 
101 1 0.452087 0.048297 0.500000 
102 1 0.472018 0.048954 0.500000 
103 1 0.502167 0.032896 0.500000 
104 1 0.491940 0.049595 0.500000 
105 1 0.522078 0.033498 0.500000 
106 1 0.511855 0.050220 0.500000 
107 1 0.541983 0.034081 0.500000 
108 1 0.531762 0.050823 0.500000 
109 1 0.561882 0.034643 0.500000 
110 1 0.551663 0.051406 0.500000 
111 1 0.581777 0.035184 0.500000 
112 1 0.571560 0.051966 0.500000 
113 1 0.601668 0.035702 0.500000 
114 1 0.591452 0.052503 0.500000 
115 1 0.621558 0.036195 0.500000 
116 1 0.641446 0.036666 0.500000 
117 1 0.661334 0.037110 0.500000 
118 1 0.681223 0.037533 0.500000 
119 1 0.701115 0.037931 0.500000 
120 1 0.721007 0.038307 0.500000 
121 1 0.740905 0.038660 0.500000 
122 1 0.760806 0.038993 0.500000 
123 1 0.780711 0.039305 0.500000 
124 1 0.800620 0.039597 0.500000 
125 1 0.820536 0.039873 0.500000 
126 1 0.840456 0.040130 0.500000 
127 1 0.860382 0.040369 0.500000 
128 1 0.880312 0.040595 0.500000 
129 1 0.900248 0.040807 0.500000 
130 1 0.920188 0.041005 0.500000 
131 1 0.940134 0.041192 0.500000 
132 1 0.960084 0.041368 0.500000 
133 1 0.980040 0.041531 0.500000 
134 1 1.000000 0.041686 0.500000 
135 1 0.011275 0.067077 0.500000 
136 1 0.031308 0.067688 0.500000 
137 1 0.051342 0.068307 0.500000 
138 1 0.071376 0.068936 0.500000 
139 1 0.091429 0.069590 0.500000 
140 1 0.101795 0.053129 0.500000 
141 1 0.111466 0.070255 0.500000 
142 1 0.121823 0.053776 0.500000 
143 1 0.131501 0.070909 0.500000 
144 1 0.141850 0.054435 0.500000 
145 1 0.151533 0.071589 0.500000 
146 1 0.161883 0.055111 0.500000 
147 1 0.171573 0.072278 0.500000 
148 1 0.181915 0.055783 0.500000 
149 1 0.201942 0.056468 0.500000 
150 1 0.221970 0.057170 0.500000 
151 1 0.241988 0.057864 0.500000 
152 1 0.261995 0.058559 0.500000 
153 1 0.282002 0.059270 0.500000 
154 1 0.302013 0.059982 0.500000 
155 1 0.322005 0.060707 0.500000 
156 1 0.341990 0.061424 0.500000 
157 1 0.361969 0.062149 0.500000 
158 1 0.381936 0.062856 0.500000 
159 1 0.401896 0.063564 0.500000 
160 1 0.421843 0.064269 0.500000 
161 1 0.441786 0.064952 0.500000 
162 1 0.461716 0.065623 0.500000 
163 1 0.481637 0.066285 0.500000 
164 1 0.501551 0.066916 0.500000 
165 1 0.521460 0.067548 0.500000 
166 1 0.541366 0.068142 0.500000 
167 1 0.561270 0.068718 0.500000 
168 1 0.581175 0.069266 0.500000 
169 1 0.601075 0.069798 0.500000 
170 1 0.611341 0.053013 0.500000 
171 1 0.620966 0.070281 0.500000 
172 1 0.631230 0.053499 0.500000 
173 1 0.640863 0.070761 0.500000 
174 1 0.651117 0.053960 0.500000 
175 1 0.671006 0.054396 0.500000 
176 1 0.660758 0.071205 0.500000 
177 1 0.690897 0.054806 0.500000 
178 1 0.680657 0.071633 0.500000 
179 1 0.710789 0.055192 0.500000 
180 1 0.700555 0.072031 0.500000 
181 1 0.730685 0.055554 0.500000 
182 1 0.720454 0.072404 0.500000 
183 1 0.750586 0.055894 0.500000 
184 1 0.770490 0.056213 0.500000 
185 1 0.790400 0.056511 0.500000 
186 1 0.810316 0.056789 0.500000 
187 1 0.830238 0.057049 0.500000 
188 1 0.850164 0.057294 0.500000 
189 1 0.870095 0.057522 0.500000 
190 1 0.890032 0.057734 0.500000 
191 1 0.909975 0.057934 0.500000 
192 1 0.929922 0.058120 0.500000 
193 1 0.949875 0.058294 0.500000 
194 1 0.969833 0.058458 0.500000 
195 1 0.989796 0.058613 0.500000 
196 1 0.020924 0.084144 0.500000 
197 1 0.040959 0.084763 0.500000 
198 1 0.060994 0.085390 0.500000 
199 1 0.081044 0.086038 0.500000 
200 1 0.101091 0.086719 0.500000 
201 1 0.121140 0.087384 0.500000 
202 1 0.141164 0.088058 0.500000 
203 1 0.161196 0.088745 0.500000 
204 1 0.191599 0.072964 0.500000 
205 1 0.181244 0.089447 0.500000 
206 1 0.211614 0.073665 0.500000 
207 1 0.201272 0.090166 0.500000 
208 1 0.221309 0.090864 0.500000 
209 1 0.231646 0.074374 0.500000 
210 1 0.241346 0.091585 0.500000 
211 1 0.251664 0.075076 0.500000 
212 1 0.261361 0.092304 0.500000 
213 1 0.271682 0.075785 0.500000 
214 1 0.291705 0.076498 0.500000 
215 1 0.311702 0.077251 0.500000 
216 1 0.331683 0.077984 0.500000 
217 1 0.351659 0.078716 0.500000 
218 1 0.371631 0.079447 0.500000 
219 1 0.391595 0.080163 0.500000 
220 1 0.411549 0.080900 0.500000 
221 1 0.431494 0.081601 0.500000 
222 1 0.451424 0.082286 0.500000 
223 1 0.471349 0.082959 0.500000 
224 1 0.491273 0.083615 0.500000 
225 1 0.511186 0.084255 0.500000 
226 1 0.531091 0.084879 0.500000 
227 1 0.550990 0.085463 0.500000 
228 1 0.570893 0.086026 0.500000 
229 1 0.590801 0.086568 0.500000 
230 1 0.610704 0.087083 0.500000 
231 1 0.630602 0.087554 0.500000 
232 1 0.650516 0.088022 0.500000 
233 1 0.670423 0.088464 0.500000 
234 1 0.690321 0.088869 0.500000 
235 1 0.710229 0.089249 0.500000 
236 1 0.730147 0.089600 0.500000 
237 1 0.740361 0.072749 0.500000 
238 1 0.750064 0.089938 0.500000 
239 1 0.760269 0.073076 0.500000 
240 1 0.769979 0.090260 0.500000 
241 1 0.780175 0.073386 0.500000 
242 1 0.789900 0.090543 0.500000 
243 1 0.800096 0.073666 0.500000 
244 1 0.809828 0.090815 0.500000 
245 1 0.820025 0.073933 0.500000 
246 1 0.829767 0.091080 0.500000 
247 1 0.839955 0.074183 0.500000 
248 1 0.849706 0.091325 0.500000 
249 1 0.859890 0.074425 0.500000 
250 1 0.869645 0.091556 0.500000 
251 1 0.879826 0.074645 0.500000 
252 1 0.889581 0.091766 0.500000 
253 1 0.899767 0.074856 0.500000 
254 1 0.909528 0.091964 0.500000 
255 1 0.919716 0.075039 0.500000 
256 1 0.929467 0.092155 0.500000 
257 1 0.939661 0.075221 0.500000 
258 1 0.949407 0.092323 0.500000 
259 1 0.959621 0.075390 0.500000 
260 1 0.979588 0.075542 0.500000 
261 1 0.999557 0.075685 0.500000 
262 1 0.010532 0.100598 0.500000 
263 1 0.030566 0.101214 0.500000 
264 1 0.050602 0.101839 0.500000 
265 1 0.070640 0.102476 0.500000 
266 1 0.090685 0.103165 0.500000 
267 1 0.110750 0.103838 0.500000 
268 1 0.130802 0.104533 0.500000 
269 1 0.150839 0.105217 0.500000 
270 1 0.170884 0.105904 0.500000 
271 1 0.190915 0.106641 0.500000 
272 1 0.210953 0.107357 0.500000 
273 1 0.230992 0.108071 0.500000 
274 1 0.251018 0.108809 0.500000 
275 1 0.271056 0.109524 0.500000 
276 1 0.281378 0.093007 0.500000 
277 1 0.291057 0.110286 0.500000 
278 1 0.301368 0.093771 0.500000 
279 1 0.311045 0.111066 0.500000 
280 1 0.321358 0.094533 0.500000 
281 1 0.331029 0.111821 0.500000 
282 1 0.341344 0.095271 0.500000 
283 1 0.361320 0.096018 0.500000 
284 1 0.381287 0.096751 0.500000 
285 1 0.401232 0.097500 0.500000 
286 1 0.421178 0.098234 0.500000 
287 1 0.441116 0.098938 0.500000 
288 1 0.461048 0.099621 0.500000 
289 1 0.480971 0.100302 0.500000 
290 1 0.500886 0.100964 0.500000 
291 1 0.520790 0.101610 0.500000 
292 1 0.540699 0.102215 0.500000 
293 1 0.560607 0.102783 0.500000 
294 1 0.580518 0.103329 0.500000 
295 1 0.600424 0.103871 0.500000 
296 1 0.620338 0.104359 0.500000 
297 1 0.640249 0.104825 0.500000 
298 1 0.660157 0.105284 0.500000 
299 1 0.680069 0.105712 0.500000 
300 1 0.699981 0.106096 0.500000 
301 1 0.719899 0.106456 0.500000 
302 1 0.739820 0.106794 0.500000 
303 1 0.759751 0.107125 0.500000 
304 1 0.779674 0.107430 0.500000 
305 1 0.799598 0.107702 0.500000 
306 1 0.819524 0.107966 0.500000 
307 1 0.839470 0.108226 0.500000 
308 1 0.859410 0.108464 0.500000 
309 1 0.879345 0.108678 0.500000 
310 1 0.899297 0.108880 0.500000 
311 1 0.919258 0.109076 0.500000 
312 1 0.939218 0.109253 0.500000 
313 1 0.969375 0.092475 0.500000 
314 1 0.959160 0.109410 0.500000 
315 1 0.989349 0.092617 0.500000 
316 1 0.979136 0.109550 0.500000 
317 1 0.999117 0.109681 0.500000 
318 1 0.020165 0.117663 0.500000 
319 1 0.040201 0.118287 0.500000 
320 1 0.060239 0.118920 0.500000 
321 1 0.080287 0.119603 0.500000 
322 1 0.100344 0.120282 0.500000 
323 1 0.120412 0.120979 0.500000 
324 1 0.140468 0.121685 0.500000 
325 1 0.160516 0.122366 0.500000 
326 1 0.180549 0.123092 0.500000 
327 1 0.200589 0.123823 0.500000 
328 1 0.220643 0.124548 0.500000 
329 1 0.240675 0.125299 0.500000 
330 1 0.260708 0.126018 0.500000 
331 1 0.280725 0.126787 0.500000 
332 1 0.300730 0.127584 0.500000 
333 1 0.320734 0.128359 0.500000 
334 1 0.340707 0.129145 0.500000 
335 1 0.350997 0.112581 0.500000 
336 1 0.360677 0.129897 0.500000 
337 1 0.370971 0.113327 0.500000 
338 1 0.380639 0.130660 0.500000 
339 1 0.390924 0.114084 0.500000 
340 1 0.400586 0.131431 0.500000 
341 1 0.410872 0.114838 0.500000 
342 1 0.420530 0.132188 0.500000 
343 1 0.430820 0.115571 0.500000 
344 1 0.450761 0.116280 0.500000 
345 1 0.470683 0.116978 0.500000 
346 1 0.490601 0.117667 0.500000 
347 1 0.510513 0.118332 0.500000 
348 1 0.530420 0.118951 0.500000 
349 1 0.550330 0.119544 0.500000 
350 1 0.570239 0.120095 0.500000 
351 1 0.590150 0.120648 0.500000 
352 1 0.610062 0.121157 0.500000 
353 1 0.629964 0.121636 0.500000 
354 1 0.649880 0.122102 0.500000 
355 1 0.669800 0.122540 0.500000 
356 1 0.689724 0.122943 0.500000 
357 1 0.709651 0.123310 0.500000 
358 1 0.729578 0.123664 0.500000 
359 1 0.749506 0.123989 0.500000 
360 1 0.769439 0.124311 0.500000 
361 1 0.789372 0.124588 0.500000 
362 1 0.809301 0.124867 0.500000 
363 1 0.829236 0.125113 0.500000 
364 1 0.849182 0.125364 0.500000 
365 1 0.869120 0.125595 0.500000 
366 1 0.889067 0.125791 0.500000 
367 1 0.909027 0.125994 0.500000 
368 1 0.928992 0.126172 0.500000 
369 1 0.948940 0.126349 0.500000 
370 1 0.968919 0.126487 0.500000 
371 1 0.988905 0.126616 0.500000 
372 1 0.009754 0.134110 0.500000 
373 1 0.029790 0.134729 0.500000 
374 1 0.019367 0.151171 0.500000 
375 1 0.049825 0.135360 0.500000 
376 1 0.039403 0.151799 0.500000 
377 1 0.069865 0.136003 0.500000 
378 1 0.089935 0.136717 0.500000 
379 1 0.109999 0.137407 0.500000 
380 1 0.130065 0.138122 0.500000 
381 1 0.150125 0.138826 0.500000 
382 1 0.170173 0.139540 0.500000 
383 1 0.190214 0.140277 0.500000 
384 1 0.210265 0.141002 0.500000 
385 1 0.230309 0.141767 0.500000 
386 1 0.250353 0.142507 0.500000 
387 1 0.270365 0.143272 0.500000 
388 1 0.290378 0.144071 0.500000 
389 1 0.310398 0.144867 0.500000 
390 1 0.330393 0.145676 0.500000 
391 1 0.350382 0.146458 0.500000 
392 1 0.370346 0.147230 0.500000 
393 1 0.390300 0.148020 0.500000 
394 1 0.410247 0.148806 0.500000 
395 1 0.440469 0.132923 0.500000 
396 1 0.430185 0.149562 0.500000 
397 1 0.460398 0.133652 0.500000 
398 1 0.450101 0.150303 0.500000 
399 1 0.480311 0.134353 0.500000 
400 1 0.470017 0.151040 0.500000 
401 1 0.500227 0.135031 0.500000 
402 1 0.489936 0.151726 0.500000 
403 1 0.520142 0.135680 0.500000 
404 1 0.540051 0.136282 0.500000 
405 1 0.559966 0.136875 0.500000 
406 1 0.579876 0.137421 0.500000 
407 1 0.599801 0.137950 0.500000 
408 1 0.619709 0.138454 0.500000 
409 1 0.639617 0.138911 0.500000 
410 1 0.659538 0.139369 0.500000 
411 1 0.679466 0.139782 0.500000 
412 1 0.699399 0.140163 0.500000 
413 1 0.719333 0.140528 0.500000 
414 1 0.739262 0.140873 0.500000 
415 1 0.759196 0.141184 0.500000 
416 1 0.779134 0.141473 0.500000 
417 1 0.799071 0.141758 0.500000 
418 1 0.819021 0.142020 0.500000 
419 1 0.838962 0.142260 0.500000 
420 1 0.858903 0.142503 0.500000 
421 1 0.878860 0.142708 0.500000 
422 1 0.898818 0.142907 0.500000 
423 1 0.918785 0.143095 0.500000 
424 1 0.938749 0.143272 0.500000 
425 1 0.958701 0.143428 0.500000 
426 1 0.978689 0.143555 0.500000 
427 1 0.998682 0.143674 0.500000 
428 1 0.008938 0.167610 0.500000 
429 1 0.028972 0.168234 0.500000 
430 1 0.049008 0.168868 0.500000 
431 1 0.059442 0.152437 0.500000 
432 1 0.069047 0.169517 0.500000 
433 1 0.079510 0.153123 0.500000 
434 1 0.089131 0.170248 0.500000 
435 1 0.099575 0.153834 0.500000 
436 1 0.109210 0.170957 0.500000 
437 1 0.119642 0.154541 0.500000 
438 1 0.139713 0.155254 0.500000 
439 1 0.129294 0.171672 0.500000 
440 1 0.159787 0.155973 0.500000 
441 1 0.179844 0.156722 0.500000 
442 1 0.199888 0.157465 0.500000 
443 1 0.219922 0.158218 0.500000 
444 1 0.239974 0.158968 0.500000 
445 1 0.260004 0.159755 0.500000 
446 1 0.280020 0.160551 0.500000 
447 1 0.300041 0.161349 0.500000 
448 1 0.320043 0.162180 0.500000 
449 1 0.340044 0.162985 0.500000 
450 1 0.360021 0.163791 0.500000 
451 1 0.379985 0.164591 0.500000 
452 1 0.399935 0.165402 0.500000 
453 1 0.419884 0.166186 0.500000 
454 1 0.439816 0.166956 0.500000 
455 1 0.459733 0.167702 0.500000 
456 1 0.479655 0.168425 0.500000 
457 1 0.499568 0.169121 0.500000 
458 1 0.509854 0.152394 0.500000 
459 1 0.519492 0.169767 0.500000 
460 1 0.529778 0.153028 0.500000 
461 1 0.539407 0.170397 0.500000 
462 1 0.549684 0.153633 0.500000 
463 1 0.559316 0.170977 0.500000 
464 1 0.569598 0.154207 0.500000 
465 1 0.579223 0.171546 0.500000 
466 1 0.589511 0.154740 0.500000 
467 1 0.609431 0.155260 0.500000 
468 1 0.629355 0.155738 0.500000 
469 1 0.649272 0.156189 0.500000 
470 1 0.669201 0.156626 0.500000 
471 1 0.689128 0.157027 0.500000 
472 1 0.709060 0.157387 0.500000 
473 1 0.728997 0.157748 0.500000 
474 1 0.748940 0.158060 0.500000 
475 1 0.768879 0.158367 0.500000 
476 1 0.788814 0.158651 0.500000 
477 1 0.808763 0.158923 0.500000 
478 1 0.828710 0.159172 0.500000 
479 1 0.848654 0.159404 0.500000 
480 1 0.868620 0.159621 0.500000 
481 1 0.888585 0.159822 0.500000 
482 1 0.908551 0.160011 0.500000 
483 1 0.928514 0.160191 0.500000 
484 1 0.948477 0.160370 0.500000 
485 1 0.968470 0.160496 0.500000 
486 1 0.988467 0.160611 0.500000 
487 1 0.018532 0.184668 0.500000 
488 1 0.038566 0.185299 0.500000 
489 1 0.058602 0.185942 0.500000 
490 1 0.078669 0.186634 0.500000 
491 1 0.098765 0.187367 0.500000 
492 1 0.118849 0.188078 0.500000 
493 1 0.138926 0.188807 0.500000 
494 1 0.149360 0.172391 0.500000 
495 1 0.158999 0.189546 0.500000 
496 1 0.169420 0.173132 0.500000 
497 1 0.179066 0.190300 0.500000 
498 1 0.189491 0.173900 0.500000 
499 1 0.199127 0.191091 0.500000 
500 1 0.209548 0.174669 0.500000 
501 1 0.219186 0.191863 0.500000 
502 1 0.229601 0.175419 0.500000 
503 1 0.249631 0.176215 0.500000 
504 1 0.269654 0.177028 0.500000 
505 1 0.289679 0.177823 0.500000 
506 1 0.309685 0.178671 0.500000 
507 1 0.329695 0.179496 0.500000 
508 1 0.349690 0.180326 0.500000 
509 1 0.369663 0.181150 0.500000 
510 1 0.389621 0.181978 0.500000 
511 1 0.409573 0.182787 0.500000 
512 1 0.429514 0.183584 0.500000 
513 1 0.449447 0.184361 0.500000 
514 1 0.469369 0.185111 0.500000 
515 1 0.489275 0.185835 0.500000 
516 1 0.509196 0.186510 0.500000 
517 1 0.529118 0.187165 0.500000 
518 1 0.549032 0.187759 0.500000 
519 1 0.568939 0.188339 0.500000 
520 1 0.588860 0.188882 0.500000 
521 1 0.599144 0.172064 0.500000 
522 1 0.608782 0.189393 0.500000 
523 1 0.619064 0.172562 0.500000 
524 1 0.628714 0.189877 0.500000 
525 1 0.638982 0.173034 0.500000 
526 1 0.648641 0.190317 0.500000 
527 1 0.658912 0.173464 0.500000 
528 1 0.668573 0.190744 0.500000 
529 1 0.678846 0.173886 0.500000 
530 1 0.688518 0.191132 0.500000 
531 1 0.698789 0.174259 0.500000 
532 1 0.718726 0.174616 0.500000 
533 1 0.738674 0.174950 0.500000 
534 1 0.758610 0.175256 0.500000 
535 1 0.778551 0.175552 0.500000 
536 1 0.798496 0.175822 0.500000 
537 1 0.818454 0.176084 0.500000 
538 1 0.838412 0.176314 0.500000 
539 1 0.858376 0.176526 0.500000 
540 1 0.878350 0.176735 0.500000 
541 1 0.898330 0.176923 0.500000 
542 1 0.918302 0.177109 0.500000 
543 1 0.938271 0.177282 0.500000 
544 1 0.958249 0.177440 0.500000 
545 1 0.978251 0.177553 0.500000 
546 1 0.998258 0.177659 0.500000 
547 1 0.008083 0.201103 0.500000 
548 1 0.028113 0.201727 0.500000 
549 1 0.048147 0.202367 0.500000 
550 1 0.068185 0.203017 0.500000 
551 1 0.088282 0.203740 0.500000 
552 1 0.108381 0.204478 0.500000 
553 1 0.128459 0.205209 0.500000 
554 1 0.148534 0.205944 0.500000 
555 1 0.168610 0.206704 0.500000 
556 1 0.188679 0.207488 0.500000 
557 1 0.208749 0.208287 0.500000 
558 1 0.239222 0.192661 0.500000 
559 1 0.228805 0.209098 0.500000 
560 1 0.259260 0.193484 0.500000 
561 1 0.248848 0.209922 0.500000 
562 1 0.279304 0.194292 0.500000 
563 1 0.268902 0.210744 0.500000 
564 1 0.299319 0.195140 0.500000 
565 1 0.288927 0.211600 0.500000 
566 1 0.319337 0.195996 0.500000 
567 1 0.339343 0.196837 0.500000 
568 1 0.359326 0.197692 0.500000 
569 1 0.379294 0.198538 0.500000 
570 1 0.399251 0.199376 0.500000 
571 1 0.419200 0.200199 0.500000 
572 1 0.439132 0.201004 0.500000 
573 1 0.459059 0.201778 0.500000 
574 1 0.478979 0.202536 0.500000 
575 1 0.498888 0.203241 0.500000 
576 1 0.518797 0.203916 0.500000 
577 1 0.538721 0.204548 0.500000 
578 1 0.558639 0.205139 0.500000 
579 1 0.578557 0.205697 0.500000 
580 1 0.598479 0.206221 0.500000 
581 1 0.618416 0.206707 0.500000 
582 1 0.638361 0.207177 0.500000 
583 1 0.658301 0.207600 0.500000 
584 1 0.678248 0.208004 0.500000 
585 1 0.708468 0.191494 0.500000 
586 1 0.698202 0.208370 0.500000 
587 1 0.728412 0.191835 0.500000 
588 1 0.718155 0.208727 0.500000 
589 1 0.748355 0.192158 0.500000 
590 1 0.738100 0.209046 0.500000 
591 1 0.768294 0.192452 0.500000 
592 1 0.758052 0.209362 0.500000 
593 1 0.788245 0.192730 0.500000 
594 1 0.778004 0.209638 0.500000 
595 1 0.808200 0.192985 0.500000 
596 1 0.797959 0.209901 0.500000 
597 1 0.828171 0.193232 0.500000 
598 1 0.817919 0.210140 0.500000 
599 1 0.848139 0.193439 0.500000 
600 1 0.837897 0.210365 0.500000 
601 1 0.868115 0.193646 0.500000 
602 1 0.857878 0.210556 0.500000 
603 1 0.888095 0.193834 0.500000 
604 1 0.877865 0.210755 0.500000 
605 1 0.908077 0.194022 0.500000 
606 1 0.897838 0.210941 0.500000 
607 1 0.928057 0.194208 0.500000 
608 1 0.917817 0.211122 0.500000 
609 1 0.948021 0.194385 0.500000 
610 1 0.937809 0.211307 0.500000 
611 1 0.957807 0.211443 0.500000 
612 1 0.968031 0.194496 0.500000 
613 1 0.977825 0.211543 0.500000 
614 1 0.988043 0.194599 0.500000 
615 1 0.997847 0.211634 0.500000 
616 1 0.017654 0.218157 0.500000 
617 1 0.037684 0.218790 0.500000 
618 1 0.057718 0.219436 0.500000 
619 1 0.077788 0.220122 0.500000 
620 1 0.097868 0.220849 0.500000 
621 1 0.117960 0.221597 0.500000 
622 1 0.138054 0.222336 0.500000 
623 1 0.158129 0.223098 0.500000 
624 1 0.178200 0.223880 0.500000 
625 1 0.198271 0.224681 0.500000 
626 1 0.218342 0.225502 0.500000 
627 1 0.238412 0.226340 0.500000 
628 1 0.258472 0.227169 0.500000 
629 1 0.278512 0.228040 0.500000 
630 1 0.298551 0.228909 0.500000 
631 1 0.308948 0.212457 0.500000 
632 1 0.318568 0.229784 0.500000 
633 1 0.328965 0.213328 0.500000 
634 1 0.338570 0.230695 0.500000 
635 1 0.348951 0.214205 0.500000 
636 1 0.358564 0.231584 0.500000 
637 1 0.368934 0.215073 0.500000 
638 1 0.388902 0.215944 0.500000 
639 1 0.408865 0.216794 0.500000 
640 1 0.428797 0.217638 0.500000 
641 1 0.448720 0.218443 0.500000 
642 1 0.468635 0.219214 0.500000 
643 1 0.488553 0.219955 0.500000 
644 1 0.508465 0.220662 0.500000 
645 1 0.528384 0.221317 0.500000 
646 1 0.548313 0.221936 0.500000 
647 1 0.568236 0.222511 0.500000 
648 1 0.588167 0.223045 0.500000 
649 1 0.608107 0.223540 0.500000 
650 1 0.628052 0.224019 0.500000 
651 1 0.648001 0.224463 0.500000 
652 1 0.667962 0.224872 0.500000 
653 1 0.687925 0.225253 0.500000 
654 1 0.707881 0.225616 0.500000 
655 1 0.727840 0.225951 0.500000 
656 1 0.747796 0.226257 0.500000 
657 1 0.767756 0.226550 0.500000 
658 1 0.787706 0.226816 0.500000 
659 1 0.807680 0.227059 0.500000 
660 1 0.827666 0.227286 0.500000 
661 1 0.847650 0.227481 0.500000 
662 1 0.867631 0.227666 0.500000 
663 1 0.887621 0.227865 0.500000 
664 1 0.907604 0.228042 0.500000 
665 1 0.927590 0.228213 0.500000 
666 1 0.947580 0.228392 0.500000 
667 1 0.967605 0.228489 0.500000 
668 1 0.987634 0.228577 0.500000 
669 1 0.007189 0.234587 0.500000 
670 1 0.027214 0.235215 0.500000 
671 1 0.047243 0.235854 0.500000 
672 1 0.067275 0.236508 0.500000 
673 1 0.087366 0.237230 0.500000 
674 1 0.107446 0.237970 0.500000 
675 1 0.127552 0.238715 0.500000 
676 1 0.147631 0.239489 0.500000 
677 1 0.167696 0.240264 0.500000 
678 1 0.187783 0.241061 0.500000 
679 1 0.207858 0.241884 0.500000 
680 1 0.227933 0.242718 0.500000 
681 1 0.248009 0.243565 0.500000 
682 1 0.268055 0.244445 0.500000 
683 1 0.288106 0.245331 0.500000 
684 1 0.308148 0.246233 0.500000 
685 1 0.328164 0.247149 0.500000 
686 1 0.348172 0.248069 0.500000 
687 1 0.378536 0.232489 0.500000 
688 1 0.368150 0.249008 0.500000 
689 1 0.398500 0.233361 0.500000 
690 1 0.388130 0.249915 0.500000 
691 1 0.418445 0.234245 0.500000 
692 1 0.408081 0.250825 0.500000 
693 1 0.438383 0.235084 0.500000 
694 1 0.428024 0.251703 0.500000 
695 1 0.458310 0.235895 0.500000 
696 1 0.478216 0.236665 0.500000 
697 1 0.498126 0.237405 0.500000 
698 1 0.518049 0.238085 0.500000 
699 1 0.537976 0.238717 0.500000 
700 1 0.557907 0.239319 0.500000 
701 1 0.577837 0.239861 0.500000 
702 1 0.597781 0.240376 0.500000 
703 1 0.617740 0.240856 0.500000 
704 1 0.637698 0.241329 0.500000 
705 1 0.657660 0.241745 0.500000 
706 1 0.677624 0.242131 0.500000 
707 1 0.697588 0.242503 0.500000 
708 1 0.717559 0.242852 0.500000 
709 1 0.737533 0.243168 0.500000 
710 1 0.757497 0.243458 0.500000 
711 1 0.777458 0.243736 0.500000 
712 1 0.797432 0.243973 0.500000 
713 1 0.817417 0.244204 0.500000 
714 1 0.837407 0.244411 0.500000 
715 1 0.857392 0.244596 0.500000 
716 1 0.877382 0.244780 0.500000 
717 1 0.897387 0.244964 0.500000 
718 1 0.917381 0.245128 0.500000 
719 1 0.937372 0.245298 0.500000 
720 1 0.957383 0.245436 0.500000 
721 1 0.977417 0.245522 0.500000 
722 1 0.997455 0.245600 0.500000 
723 1 0.016737 0.251640 0.500000 
724 1 0.006256 0.268068 0.500000 
725 1 0.036760 0.252274 0.500000 
726 1 0.026272 0.268696 0.500000 
727 1 0.056787 0.252921 0.500000 
728 1 0.046292 0.269335 0.500000 
729 1 0.076858 0.253610 0.500000 
730 1 0.066319 0.269991 0.500000 
731 1 0.096929 0.254349 0.500000 
732 1 0.086398 0.270718 0.500000 
733 1 0.117017 0.255079 0.500000 
734 1 0.137100 0.255858 0.500000 
735 1 0.157171 0.256645 0.500000 
736 1 0.177255 0.257415 0.500000 
737 1 0.197345 0.258246 0.500000 
738 1 0.217426 0.259077 0.500000 
739 1 0.237508 0.259925 0.500000 
740 1 0.257568 0.260828 0.500000 
741 1 0.277624 0.261722 0.500000 
742 1 0.297679 0.262642 0.500000 
743 1 0.317725 0.263584 0.500000 
744 1 0.337754 0.264522 0.500000 
745 1 0.357750 0.265490 0.500000 
746 1 0.377743 0.266438 0.500000 
747 1 0.397705 0.267388 0.500000 
748 1 0.417668 0.268307 0.500000 
749 1 0.437608 0.269188 0.500000 
750 1 0.447961 0.252544 0.500000 
751 1 0.457518 0.270050 0.500000 
752 1 0.467876 0.253370 0.500000 
753 1 0.477426 0.270857 0.500000 
754 1 0.487781 0.254143 0.500000 
755 1 0.507701 0.254856 0.500000 
756 1 0.527617 0.255497 0.500000 
757 1 0.547551 0.256109 0.500000 
758 1 0.567496 0.256681 0.500000 
759 1 0.587445 0.257211 0.500000 
760 1 0.607407 0.257705 0.500000 
761 1 0.627364 0.258173 0.500000 
762 1 0.647338 0.258611 0.500000 
763 1 0.667309 0.259014 0.500000 
764 1 0.687277 0.259388 0.500000 
765 1 0.707250 0.259745 0.500000 
766 1 0.727235 0.260071 0.500000 
767 1 0.747225 0.260376 0.500000 
768 1 0.767206 0.260653 0.500000 
769 1 0.787190 0.260896 0.500000 
770 1 0.807173 0.261128 0.500000 
771 1 0.827168 0.261336 0.500000 
772 1 0.847167 0.261530 0.500000 
773 1 0.867156 0.261715 0.500000 
774 1 0.887155 0.261887 0.500000 
775 1 0.907169 0.262047 0.500000 
776 1 0.927169 0.262217 0.500000 
777 1 0.947159 0.262387 0.500000 
778 1 0.967200 0.262468 0.500000 
779 1 0.987245 0.262544 0.500000 
780 1 0.015779 0.285121 0.500000 
781 1 0.035792 0.285753 0.500000 
782 1 0.055810 0.286400 0.500000 
783 1 0.075862 0.287076 0.500000 
784 1 0.095929 0.287822 0.500000 
785 1 0.106474 0.271453 0.500000 
786 1 0.115991 0.288573 0.500000 
787 1 0.126542 0.272206 0.500000 
788 1 0.136055 0.289324 0.500000 
789 1 0.146625 0.272992 0.500000 
790 1 0.156148 0.290104 0.500000 
791 1 0.166719 0.273771 0.500000 
792 1 0.176236 0.290922 0.500000 
793 1 0.186793 0.274578 0.500000 
794 1 0.206887 0.275426 0.500000 
795 1 0.226973 0.276272 0.500000 
796 1 0.247042 0.277178 0.500000 
797 1 0.267132 0.278094 0.500000 
798 1 0.287198 0.279019 0.500000 
799 1 0.307253 0.279982 0.500000 
800 1 0.327295 0.280948 0.500000 
801 1 0.347304 0.281935 0.500000 
802 1 0.367310 0.282907 0.500000 
803 1 0.387293 0.283910 0.500000 
804 1 0.407269 0.284868 0.500000 
805 1 0.427224 0.285808 0.500000 
806 1 0.447153 0.286708 0.500000 
807 1 0.467074 0.287561 0.500000 
808 1 0.497353 0.271606 0.500000 
809 1 0.486988 0.288346 0.500000 
810 1 0.506910 0.289071 0.500000 
811 1 0.517284 0.272297 0.500000 
812 1 0.526844 0.289726 0.500000 
813 1 0.537209 0.272905 0.500000 
814 1 0.546780 0.290320 0.500000 
815 1 0.557152 0.273494 0.500000 
816 1 0.577102 0.274038 0.500000 
817 1 0.597061 0.274544 0.500000 
818 1 0.617032 0.275024 0.500000 
819 1 0.637006 0.275461 0.500000 
820 1 0.656990 0.275891 0.500000 
821 1 0.676967 0.276269 0.500000 
822 1 0.696953 0.276636 0.500000 
823 1 0.716955 0.276974 0.500000 
824 1 0.736958 0.277277 0.500000 
825 1 0.756952 0.277564 0.500000 
826 1 0.776945 0.277815 0.500000 
827 1 0.796944 0.278055 0.500000 
828 1 0.816945 0.278266 0.500000 
829 1 0.836950 0.278454 0.500000 
830 1 0.856956 0.278648 0.500000 
831 1 0.876961 0.278824 0.500000 
832 1 0.896969 0.278976 0.500000 
833 1 0.916970 0.279142 0.500000 
834 1 0.936974 0.279296 0.500000 
835 1 0.956982 0.279417 0.500000 
836 1 0.977036 0.279488 0.500000 
837 1 0.997089 0.279555 0.500000 
838 1 0.005284 0.301547 0.500000 
839 1 0.025288 0.302175 0.500000 
840 1 0.045299 0.302815 0.500000 
841 1 0.065313 0.303468 0.500000 
842 1 0.085364 0.304174 0.500000 
843 1 0.105431 0.304925 0.500000 
844 1 0.125501 0.305685 0.500000 
845 1 0.145571 0.306444 0.500000 
846 1 0.165653 0.307250 0.500000 
847 1 0.196319 0.291749 0.500000 
848 1 0.185750 0.308079 0.500000 
849 1 0.216422 0.292612 0.500000 
850 1 0.205846 0.308927 0.500000 
851 1 0.236503 0.293512 0.500000 
852 1 0.225929 0.309831 0.500000 
853 1 0.256598 0.294423 0.500000 
854 1 0.246029 0.310729 0.500000 
855 1 0.276679 0.295373 0.500000 
856 1 0.266120 0.311683 0.500000 
857 1 0.296740 0.296336 0.500000 
858 1 0.316795 0.297338 0.500000 
859 1 0.336819 0.298351 0.500000 
860 1 0.356845 0.299352 0.500000 
861 1 0.376843 0.300384 0.500000 
862 1 0.396835 0.301389 0.500000 
863 1 0.416801 0.302387 0.500000 
864 1 0.436735 0.303346 0.500000 
865 1 0.456664 0.304239 0.500000 
866 1 0.476590 0.305070 0.500000 
867 1 0.496524 0.305834 0.500000 
868 1 0.516463 0.306535 0.500000 
869 1 0.536401 0.307165 0.500000 
870 1 0.566729 0.290882 0.500000 
871 1 0.556352 0.307730 0.500000 
872 1 0.586676 0.291396 0.500000 
873 1 0.576317 0.308268 0.500000 
874 1 0.606651 0.291866 0.500000 
875 1 0.596289 0.308731 0.500000 
876 1 0.626637 0.292327 0.500000 
877 1 0.616273 0.309189 0.500000 
878 1 0.646626 0.292747 0.500000 
879 1 0.636270 0.309620 0.500000 
880 1 0.666632 0.293150 0.500000 
881 1 0.686630 0.293515 0.500000 