ITEM: TIMESTEP
3600
ITEM: NUMBER OF ATOMS
2850
ITEM: BOX BOUNDS ss ss pp
-28.0536 28.3253 
-28.9988 28.9984 
-0.5 0.5 
ITEM: ATOMS id type xs ys zs
1 1 0.012661 0.000000 0.500000 
2 1 0.032688 0.000597 0.500000 
3 1 0.052715 0.001202 0.500000 
4 1 0.072742 0.001814 0.500000 
5 1 0.092767 0.002433 0.500000 
6 1 0.112794 0.003060 0.500000 
7 1 0.132817 0.003697 0.500000 
8 1 0.152841 0.004338 0.500000 
9 1 0.172861 0.004988 0.500000 
10 1 0.192879 0.005643 0.500000 
11 1 0.212895 0.006305 0.500000 
12 1 0.232906 0.006973 0.500000 
13 1 0.252912 0.007645 0.500000 
14 1 0.272914 0.008319 0.500000 
15 1 0.292911 0.008997 0.500000 
16 1 0.312901 0.009676 0.500000 
17 1 0.332885 0.010356 0.500000 
18 1 0.352861 0.011033 0.500000 
19 1 0.372830 0.011707 0.500000 
20 1 0.392791 0.012376 0.500000 
21 1 0.022340 0.017073 0.500000 
22 1 0.042369 0.017677 0.500000 
23 1 0.062397 0.018289 0.500000 
24 1 0.082426 0.018911 0.500000 
25 1 0.102455 0.019539 0.500000 
26 1 0.122484 0.020177 0.500000 
27 1 0.142511 0.020822 0.500000 
28 1 0.162536 0.021475 0.500000 
29 1 0.182559 0.022136 0.500000 
30 1 0.202579 0.022803 0.500000 
31 1 0.222596 0.023475 0.500000 
32 1 0.242610 0.024155 0.500000 
33 1 0.262618 0.024839 0.500000 
34 1 0.282622 0.025527 0.500000 
35 1 0.302619 0.026217 0.500000 
36 1 0.322610 0.026908 0.500000 
37 1 0.342593 0.027600 0.500000 
38 1 0.362570 0.028289 0.500000 
39 1 0.382537 0.028974 0.500000 
40 1 0.402497 0.029655 0.500000 
41 1 0.412744 0.013039 0.500000 
42 1 0.422448 0.030326 0.500000 
43 1 0.432688 0.013694 0.500000 
44 1 0.442390 0.030989 0.500000 
45 1 0.452624 0.014337 0.500000 
46 1 0.462324 0.031639 0.500000 
47 1 0.472553 0.014968 0.500000 
48 1 0.482250 0.032276 0.500000 
49 1 0.492474 0.015584 0.500000 
50 1 0.512388 0.016184 0.500000 
51 1 0.532295 0.016766 0.500000 
52 1 0.552198 0.017330 0.500000 
53 1 0.572095 0.017873 0.500000 
54 1 0.591989 0.018396 0.500000 
55 1 0.611880 0.018896 0.500000 
56 1 0.631769 0.019373 0.500000 
57 1 0.651657 0.019829 0.500000 
58 1 0.671546 0.020261 0.500000 
59 1 0.691436 0.020670 0.500000 
60 1 0.711328 0.021058 0.500000 
61 1 0.731222 0.021423 0.500000 
62 1 0.751120 0.021768 0.500000 
63 1 0.771021 0.022094 0.500000 
64 1 0.790927 0.022399 0.500000 
65 1 0.810837 0.022687 0.500000 
66 1 0.830751 0.022958 0.500000 
67 1 0.850671 0.023211 0.500000 
68 1 0.870595 0.023449 0.500000 
69 1 0.890525 0.023674 0.500000 
70 1 0.910459 0.023884 0.500000 
71 1 0.930398 0.024080 0.500000 
72 1 0.950341 0.024267 0.500000 
73 1 0.970290 0.024443 0.500000 
74 1 0.990243 0.024606 0.500000 
75 1 0.011983 0.033545 0.500000 
76 1 0.032014 0.034148 0.500000 
77 1 0.021650 0.050615 0.500000 
78 1 0.052044 0.034760 0.500000 
79 1 0.041680 0.051227 0.500000 
80 1 0.072075 0.035381 0.500000 
81 1 0.061715 0.051847 0.500000 
82 1 0.092107 0.036012 0.500000 
83 1 0.081751 0.052478 0.500000 
84 1 0.112138 0.036650 0.500000 
85 1 0.132168 0.037297 0.500000 
86 1 0.152197 0.037952 0.500000 
87 1 0.172226 0.038617 0.500000 
88 1 0.192251 0.039288 0.500000 
89 1 0.212274 0.039967 0.500000 
90 1 0.232293 0.040654 0.500000 
91 1 0.252309 0.041345 0.500000 
92 1 0.272318 0.042042 0.500000 
93 1 0.292324 0.042743 0.500000 
94 1 0.312323 0.043447 0.500000 
95 1 0.332314 0.044150 0.500000 
96 1 0.352297 0.044856 0.500000 
97 1 0.372273 0.045557 0.500000 
98 1 0.392240 0.046254 0.500000 
99 1 0.412198 0.046944 0.500000 
100 1 0.432147 0.047626 0.500000 
101 1 0.452087 0.048297 0.500000 
102 1 0.472018 0.048954 0.500000 
103 1 0.502167 0.032896 0.500000 
104 1 0.491940 0.049595 0.500000 
105 1 0.522078 0.033498 0.500000 
106 1 0.511855 0.050220 0.500000 
107 1 0.541983 0.034081 0.500000 
108 1 0.531762 0.050823 0.500000 
109 1 0.561882 0.034643 0.500000 
110 1 0.551663 0.051406 0.500000 
111 1 0.581777 0.035184 0.500000 
112 1 0.571560 0.051966 0.500000 
113 1 0.601668 0.035702 0.500000 
114 1 0.591452 0.052503 0.500000 
115 1 0.621558 0.036195 0.500000 
116 1 0.641446 0.036666 0.500000 
117 1 0.661334 0.037110 0.500000 
118 1 0.681223 0.037533 0.500000 
119 1 0.701115 0.037931 0.500000 
120 1 0.721007 0.038307 0.500000 
121 1 0.740905 0.038660 0.500000 
122 1 0.760806 0.038993 0.500000 
123 1 0.780711 0.039305 0.500000 
124 1 0.800620 0.039597 0.500000 
125 1 0.820536 0.039873 0.500000 
126 1 0.840456 0.040130 0.500000 
127 1 0.860382 0.040369 0.500000 
128 1 0.880312 0.040595 0.500000 
129 1 0.900248 0.040807 0.500000 
130 1 0.920188 0.041005 0.500000 
131 1 0.940134 0.041192 0.500000 
132 1 0.960084 0.041368 0.500000 
133 1 0.980040 0.041531 0.500000 
134 1 1.000000 0.041686 0.500000 
135 1 0.011275 0.067077 0.500000 
136 1 0.031308 0.067688 0.500000 
137 1 0.051342 0.068307 0.500000 
138 1 0.071376 0.068936 0.500000 
139 1 0.091424 0.069580 0.500000 
140 1 0.101793 0.053123 0.500000 
141 1 0.111467 0.070247 0.500000 
142 1 0.121828 0.053779 0.500000 
143 1 0.131504 0.070917 0.500000 
144 1 0.141857 0.054438 0.500000 
145 1 0.151539 0.071587 0.500000 
146 1 0.161891 0.055110 0.500000 
147 1 0.171565 0.072287 0.500000 
148 1 0.181915 0.055796 0.500000 
149 1 0.201938 0.056477 0.500000 
150 1 0.221962 0.057168 0.500000 
151 1 0.241978 0.057868 0.500000 
152 1 0.261992 0.058572 0.500000 
153 1 0.281999 0.059284 0.500000 
154 1 0.302000 0.059998 0.500000 
155 1 0.321995 0.060719 0.500000 
156 1 0.341975 0.061435 0.500000 
157 1 0.361948 0.062150 0.500000 
158 1 0.381917 0.062864 0.500000 
159 1 0.401877 0.063572 0.500000 
160 1 0.421830 0.064264 0.500000 
161 1 0.441770 0.064955 0.500000 
162 1 0.461702 0.065631 0.500000 
163 1 0.481633 0.066288 0.500000 
164 1 0.501552 0.066934 0.500000 
165 1 0.521462 0.067551 0.500000 
166 1 0.541366 0.068152 0.500000 
167 1 0.561267 0.068728 0.500000 
168 1 0.581165 0.069281 0.500000 
169 1 0.601058 0.069806 0.500000 
170 1 0.611341 0.053013 0.500000 
171 1 0.620948 0.070299 0.500000 
172 1 0.631230 0.053499 0.500000 
173 1 0.640845 0.070772 0.500000 
174 1 0.651117 0.053960 0.500000 
175 1 0.671006 0.054396 0.500000 
176 1 0.660739 0.071222 0.500000 
177 1 0.690897 0.054806 0.500000 
178 1 0.680637 0.071642 0.500000 
179 1 0.710789 0.055192 0.500000 
180 1 0.700540 0.072041 0.500000 
181 1 0.730685 0.055554 0.500000 
182 1 0.720446 0.072417 0.500000 
183 1 0.750586 0.055894 0.500000 
184 1 0.770490 0.056213 0.500000 
185 1 0.790400 0.056511 0.500000 
186 1 0.810316 0.056789 0.500000 
187 1 0.830238 0.057049 0.500000 
188 1 0.850164 0.057294 0.500000 
189 1 0.870095 0.057522 0.500000 
190 1 0.890032 0.057734 0.500000 
191 1 0.909975 0.057934 0.500000 
192 1 0.929922 0.058120 0.500000 
193 1 0.949875 0.058294 0.500000 
194 1 0.969833 0.058458 0.500000 
195 1 0.989796 0.058613 0.500000 
196 1 0.020924 0.084144 0.500000 
197 1 0.040959 0.084763 0.500000 
198 1 0.060994 0.085390 0.500000 
199 1 0.081041 0.086031 0.500000 
200 1 0.101088 0.086702 0.500000 
201 1 0.121133 0.087382 0.500000 
202 1 0.141175 0.088060 0.500000 
203 1 0.161203 0.088761 0.500000 
204 1 0.191592 0.072976 0.500000 
205 1 0.181236 0.089461 0.500000 
206 1 0.211616 0.073672 0.500000 
207 1 0.201261 0.090166 0.500000 
208 1 0.221279 0.090886 0.500000 
209 1 0.231634 0.074383 0.500000 
210 1 0.241305 0.091599 0.500000 
211 1 0.251654 0.075092 0.500000 
212 1 0.261323 0.092329 0.500000 
213 1 0.271665 0.075814 0.500000 
214 1 0.291667 0.076541 0.500000 
215 1 0.311664 0.077269 0.500000 
216 1 0.331651 0.078005 0.500000 
217 1 0.351625 0.078734 0.500000 
218 1 0.371596 0.079457 0.500000 
219 1 0.391560 0.080187 0.500000 
220 1 0.411514 0.080892 0.500000 
221 1 0.431457 0.081601 0.500000 
222 1 0.451396 0.082302 0.500000 
223 1 0.471328 0.082971 0.500000 
224 1 0.491249 0.083634 0.500000 
225 1 0.511164 0.084276 0.500000 
226 1 0.531074 0.084892 0.500000 
227 1 0.550979 0.085487 0.500000 
228 1 0.570878 0.086054 0.500000 
229 1 0.590777 0.086593 0.500000 
230 1 0.610675 0.087105 0.500000 
231 1 0.630569 0.087586 0.500000 
232 1 0.650470 0.088045 0.500000 
233 1 0.670375 0.088478 0.500000 
234 1 0.690281 0.088888 0.500000 
235 1 0.710193 0.089270 0.500000 
236 1 0.730109 0.089631 0.500000 
237 1 0.740353 0.072766 0.500000 
238 1 0.750029 0.089962 0.500000 
239 1 0.760268 0.073089 0.500000 
240 1 0.769951 0.090275 0.500000 
241 1 0.780187 0.073396 0.500000 
242 1 0.789876 0.090568 0.500000 
243 1 0.800111 0.073680 0.500000 
244 1 0.809808 0.090841 0.500000 
245 1 0.820038 0.073946 0.500000 
246 1 0.829741 0.091103 0.500000 
247 1 0.839964 0.074199 0.500000 
248 1 0.849678 0.091337 0.500000 
249 1 0.859896 0.074431 0.500000 
250 1 0.869621 0.091562 0.500000 
251 1 0.879830 0.074647 0.500000 
252 1 0.889565 0.091763 0.500000 
253 1 0.899772 0.074847 0.500000 
254 1 0.909511 0.091962 0.500000 
255 1 0.919718 0.075041 0.500000 
256 1 0.929460 0.092147 0.500000 
257 1 0.939670 0.075219 0.500000 
258 1 0.949407 0.092323 0.500000 
259 1 0.959621 0.075390 0.500000 
260 1 0.979588 0.075542 0.500000 
261 1 0.999557 0.075685 0.500000 
262 1 0.010532 0.100598 0.500000 
263 1 0.030566 0.101214 0.500000 
264 1 0.050602 0.101839 0.500000 
265 1 0.070640 0.102476 0.500000 
266 1 0.090693 0.103144 0.500000 
267 1 0.110747 0.103832 0.500000 
268 1 0.130795 0.104518 0.500000 
269 1 0.150830 0.105227 0.500000 
270 1 0.170864 0.105931 0.500000 
271 1 0.190895 0.106643 0.500000 
272 1 0.210919 0.107373 0.500000 
273 1 0.230944 0.108096 0.500000 
274 1 0.250962 0.108830 0.500000 
275 1 0.270973 0.109579 0.500000 
276 1 0.281329 0.093070 0.500000 
277 1 0.290981 0.110334 0.500000 
278 1 0.301328 0.093809 0.500000 
279 1 0.310975 0.111095 0.500000 
280 1 0.321317 0.094557 0.500000 
281 1 0.330967 0.111858 0.500000 
282 1 0.341298 0.095305 0.500000 
283 1 0.361272 0.096040 0.500000 
284 1 0.381239 0.096784 0.500000 
285 1 0.401199 0.097520 0.500000 
286 1 0.421138 0.098235 0.500000 
287 1 0.441076 0.098952 0.500000 
288 1 0.461014 0.099651 0.500000 
289 1 0.480940 0.100327 0.500000 
290 1 0.500854 0.100987 0.500000 
291 1 0.520764 0.101623 0.500000 
292 1 0.540675 0.102237 0.500000 
293 1 0.560586 0.102823 0.500000 
294 1 0.580491 0.103378 0.500000 
295 1 0.600398 0.103905 0.500000 
296 1 0.620304 0.104405 0.500000 
297 1 0.640208 0.104871 0.500000 
298 1 0.660114 0.105314 0.500000 
299 1 0.680025 0.105736 0.500000 
300 1 0.699939 0.106123 0.500000 
301 1 0.719857 0.106492 0.500000 
302 1 0.739781 0.106834 0.500000 
303 1 0.759709 0.107153 0.500000 
304 1 0.779641 0.107457 0.500000 
305 1 0.799576 0.107736 0.500000 
306 1 0.819514 0.108003 0.500000 
307 1 0.839456 0.108248 0.500000 
308 1 0.859399 0.108474 0.500000 
309 1 0.879345 0.108687 0.500000 
310 1 0.899289 0.108881 0.500000 
311 1 0.919246 0.109072 0.500000 
312 1 0.939201 0.109255 0.500000 
313 1 0.969375 0.092475 0.500000 
314 1 0.959160 0.109410 0.500000 
315 1 0.989349 0.092617 0.500000 
316 1 0.979136 0.109550 0.500000 
317 1 0.999117 0.109681 0.500000 
318 1 0.020165 0.117663 0.500000 
319 1 0.040201 0.118287 0.500000 
320 1 0.060239 0.118920 0.500000 
321 1 0.080290 0.119581 0.500000 
322 1 0.100340 0.120263 0.500000 
323 1 0.120395 0.120963 0.500000 
324 1 0.140432 0.121675 0.500000 
325 1 0.160476 0.122391 0.500000 
326 1 0.180513 0.123107 0.500000 
327 1 0.200542 0.123839 0.500000 
328 1 0.220574 0.124576 0.500000 
329 1 0.240599 0.125324 0.500000 
330 1 0.260617 0.126079 0.500000 
331 1 0.280629 0.126842 0.500000 
332 1 0.300631 0.127622 0.500000 
333 1 0.320629 0.128394 0.500000 
334 1 0.340616 0.129173 0.500000 
335 1 0.350949 0.112617 0.500000 
336 1 0.360595 0.129946 0.500000 
337 1 0.370918 0.113371 0.500000 
338 1 0.380560 0.130717 0.500000 
339 1 0.390881 0.114125 0.500000 
340 1 0.400514 0.131484 0.500000 
341 1 0.410835 0.114870 0.500000 
342 1 0.420463 0.132231 0.500000 
343 1 0.430774 0.115594 0.500000 
344 1 0.450704 0.116312 0.500000 
345 1 0.470631 0.117016 0.500000 
346 1 0.490552 0.117693 0.500000 
347 1 0.510472 0.118347 0.500000 
348 1 0.530385 0.118983 0.500000 
349 1 0.550296 0.119585 0.500000 
350 1 0.570206 0.120162 0.500000 
351 1 0.590114 0.120702 0.500000 
352 1 0.610026 0.121217 0.500000 
353 1 0.629935 0.121699 0.500000 
354 1 0.649841 0.122152 0.500000 
355 1 0.669755 0.122579 0.500000 
356 1 0.689675 0.122981 0.500000 
357 1 0.709595 0.123357 0.500000 
358 1 0.729520 0.123710 0.500000 
359 1 0.749454 0.124033 0.500000 
360 1 0.769395 0.124343 0.500000 
361 1 0.789338 0.124631 0.500000 
362 1 0.809277 0.124901 0.500000 
363 1 0.829219 0.125158 0.500000 
364 1 0.849163 0.125388 0.500000 
365 1 0.869112 0.125604 0.500000 
366 1 0.889065 0.125808 0.500000 
367 1 0.909023 0.125991 0.500000 
368 1 0.928982 0.126181 0.500000 
369 1 0.948940 0.126349 0.500000 
370 1 0.968919 0.126487 0.500000 
371 1 0.988905 0.126616 0.500000 
372 1 0.009754 0.134110 0.500000 
373 1 0.029790 0.134729 0.500000 
374 1 0.019367 0.151171 0.500000 
375 1 0.049825 0.135360 0.500000 
376 1 0.039403 0.151799 0.500000 
377 1 0.069865 0.136003 0.500000 
378 1 0.089924 0.136691 0.500000 
379 1 0.109980 0.137389 0.500000 
380 1 0.130028 0.138113 0.500000 
381 1 0.150076 0.138827 0.500000 
382 1 0.170121 0.139559 0.500000 
383 1 0.190157 0.140297 0.500000 
384 1 0.210192 0.141039 0.500000 
385 1 0.230222 0.141798 0.500000 
386 1 0.250248 0.142565 0.500000 
387 1 0.270267 0.143339 0.500000 
388 1 0.290273 0.144128 0.500000 
389 1 0.310280 0.144916 0.500000 
390 1 0.330274 0.145709 0.500000 
391 1 0.350258 0.146499 0.500000 
392 1 0.370232 0.147293 0.500000 
393 1 0.390192 0.148083 0.500000 
394 1 0.410148 0.148856 0.500000 
395 1 0.440396 0.132968 0.500000 
396 1 0.430088 0.149617 0.500000 
397 1 0.460318 0.133693 0.500000 
398 1 0.450015 0.150364 0.500000 
399 1 0.480240 0.134393 0.500000 
400 1 0.469941 0.151085 0.500000 
401 1 0.500160 0.135062 0.500000 
402 1 0.489865 0.151780 0.500000 
403 1 0.520080 0.135720 0.500000 
404 1 0.539995 0.136343 0.500000 
405 1 0.559905 0.136934 0.500000 
406 1 0.579821 0.137497 0.500000 
407 1 0.599735 0.138025 0.500000 
408 1 0.619649 0.138525 0.500000 
409 1 0.639560 0.138992 0.500000 
410 1 0.659478 0.139424 0.500000 
411 1 0.679402 0.139841 0.500000 
412 1 0.699331 0.140222 0.500000 
413 1 0.719262 0.140585 0.500000 
414 1 0.739196 0.140916 0.500000 
415 1 0.759138 0.141229 0.500000 
416 1 0.779086 0.141525 0.500000 
417 1 0.799031 0.141803 0.500000 
418 1 0.818978 0.142062 0.500000 
419 1 0.838927 0.142301 0.500000 
420 1 0.858879 0.142515 0.500000 
421 1 0.878838 0.142724 0.500000 
422 1 0.898801 0.142919 0.500000 
423 1 0.918763 0.143103 0.500000 
424 1 0.938730 0.143277 0.500000 
425 1 0.958701 0.143428 0.500000 
426 1 0.978689 0.143555 0.500000 
427 1 0.998682 0.143674 0.500000 
428 1 0.008938 0.167610 0.500000 
429 1 0.028972 0.168234 0.500000 
430 1 0.049008 0.168868 0.500000 
431 1 0.059442 0.152437 0.500000 
432 1 0.069047 0.169517 0.500000 
433 1 0.079497 0.153110 0.500000 
434 1 0.089109 0.170223 0.500000 
435 1 0.099555 0.153810 0.500000 
436 1 0.109165 0.170946 0.500000 
437 1 0.119607 0.154535 0.500000 
438 1 0.139663 0.155259 0.500000 
439 1 0.129226 0.171675 0.500000 
440 1 0.159707 0.155992 0.500000 
441 1 0.179750 0.156740 0.500000 
442 1 0.199796 0.157493 0.500000 
443 1 0.219832 0.158259 0.500000 
444 1 0.239862 0.159034 0.500000 
445 1 0.259889 0.159818 0.500000 
446 1 0.279901 0.160618 0.500000 
447 1 0.299916 0.161417 0.500000 
448 1 0.319921 0.162224 0.500000 
449 1 0.339915 0.163035 0.500000 
450 1 0.359895 0.163848 0.500000 
451 1 0.379865 0.164663 0.500000 
452 1 0.399825 0.165458 0.500000 
453 1 0.419772 0.166252 0.500000 
454 1 0.439706 0.167025 0.500000 
455 1 0.459635 0.167764 0.500000 
456 1 0.479562 0.168483 0.500000 
457 1 0.499484 0.169182 0.500000 
458 1 0.509780 0.152451 0.500000 
459 1 0.519399 0.169846 0.500000 
460 1 0.529694 0.153097 0.500000 
461 1 0.539313 0.170471 0.500000 
462 1 0.549606 0.153704 0.500000 
463 1 0.559226 0.171067 0.500000 
464 1 0.569519 0.154282 0.500000 
465 1 0.579138 0.171636 0.500000 
466 1 0.589436 0.154831 0.500000 
467 1 0.609352 0.155348 0.500000 
468 1 0.629270 0.155833 0.500000 
469 1 0.649196 0.156273 0.500000 
470 1 0.669123 0.156694 0.500000 
471 1 0.689056 0.157095 0.500000 
472 1 0.708988 0.157459 0.500000 
473 1 0.728927 0.157801 0.500000 
474 1 0.748872 0.158114 0.500000 
475 1 0.768821 0.158417 0.500000 
476 1 0.788770 0.158707 0.500000 
477 1 0.808725 0.158968 0.500000 
478 1 0.828683 0.159210 0.500000 
479 1 0.848642 0.159430 0.500000 
480 1 0.868603 0.159640 0.500000 
481 1 0.888567 0.159837 0.500000 
482 1 0.908537 0.160027 0.500000 
483 1 0.928508 0.160205 0.500000 
484 1 0.948477 0.160370 0.500000 
485 1 0.968470 0.160496 0.500000 
486 1 0.988467 0.160611 0.500000 
487 1 0.018532 0.184668 0.500000 
488 1 0.038566 0.185299 0.500000 
489 1 0.058602 0.185942 0.500000 
490 1 0.078655 0.186623 0.500000 
491 1 0.098717 0.187348 0.500000 
492 1 0.118779 0.188081 0.500000 
493 1 0.138836 0.188826 0.500000 
494 1 0.149281 0.172418 0.500000 
495 1 0.158891 0.189581 0.500000 
496 1 0.169330 0.173168 0.500000 
497 1 0.178950 0.190345 0.500000 
498 1 0.189381 0.173925 0.500000 
499 1 0.199001 0.191124 0.500000 
500 1 0.209426 0.174704 0.500000 
501 1 0.219048 0.191923 0.500000 
502 1 0.229463 0.175487 0.500000 
503 1 0.249497 0.176279 0.500000 
504 1 0.269521 0.177095 0.500000 
505 1 0.289537 0.177902 0.500000 
506 1 0.309545 0.178725 0.500000 
507 1 0.329547 0.179552 0.500000 
508 1 0.349540 0.180382 0.500000 
509 1 0.369518 0.181218 0.500000 
510 1 0.389485 0.182043 0.500000 
511 1 0.409436 0.182860 0.500000 
512 1 0.429377 0.183661 0.500000 
513 1 0.449312 0.184428 0.500000 
514 1 0.469238 0.185176 0.500000 
515 1 0.489159 0.185895 0.500000 
516 1 0.509081 0.186589 0.500000 
517 1 0.528998 0.187237 0.500000 
518 1 0.548913 0.187847 0.500000 
519 1 0.568829 0.188436 0.500000 
520 1 0.588752 0.188986 0.500000 
521 1 0.599054 0.172167 0.500000 
522 1 0.608681 0.189497 0.500000 
523 1 0.618977 0.172667 0.500000 
524 1 0.628613 0.189973 0.500000 
525 1 0.638906 0.173123 0.500000 
526 1 0.648545 0.190411 0.500000 
527 1 0.658837 0.173550 0.500000 
528 1 0.668478 0.190825 0.500000 
529 1 0.678769 0.173961 0.500000 
530 1 0.688423 0.191213 0.500000 
531 1 0.698707 0.174339 0.500000 
532 1 0.718650 0.174686 0.500000 
533 1 0.738599 0.175008 0.500000 
534 1 0.758550 0.175310 0.500000 
535 1 0.778506 0.175603 0.500000 
536 1 0.798469 0.175875 0.500000 
537 1 0.818429 0.176122 0.500000 
538 1 0.838394 0.176347 0.500000 
539 1 0.858363 0.176558 0.500000 
540 1 0.878333 0.176761 0.500000 
541 1 0.898305 0.176951 0.500000 
542 1 0.918283 0.177129 0.500000 
543 1 0.938265 0.177295 0.500000 
544 1 0.958249 0.177440 0.500000 
545 1 0.978251 0.177553 0.500000 
546 1 0.998258 0.177659 0.500000 
547 1 0.008083 0.201103 0.500000 
548 1 0.028113 0.201727 0.500000 
549 1 0.048147 0.202367 0.500000 
550 1 0.068185 0.203017 0.500000 
551 1 0.088248 0.203738 0.500000 
552 1 0.108312 0.204477 0.500000 
553 1 0.128376 0.205223 0.500000 
554 1 0.148435 0.205982 0.500000 
555 1 0.168496 0.206750 0.500000 
556 1 0.188552 0.207536 0.500000 
557 1 0.208606 0.208332 0.500000 
558 1 0.239086 0.192724 0.500000 
559 1 0.228660 0.209152 0.500000 
560 1 0.259114 0.193546 0.500000 
561 1 0.248701 0.209982 0.500000 
562 1 0.279142 0.194372 0.500000 
563 1 0.268737 0.210816 0.500000 
564 1 0.299158 0.195208 0.500000 
565 1 0.288768 0.211668 0.500000 
566 1 0.319168 0.196054 0.500000 
567 1 0.339173 0.196897 0.500000 
568 1 0.359164 0.197752 0.500000 
569 1 0.379139 0.198604 0.500000 
570 1 0.399101 0.199447 0.500000 
571 1 0.419055 0.200278 0.500000 
572 1 0.438998 0.201077 0.500000 
573 1 0.458923 0.201858 0.500000 
574 1 0.478840 0.202607 0.500000 
575 1 0.498757 0.203317 0.500000 
576 1 0.518678 0.203998 0.500000 
577 1 0.538600 0.204632 0.500000 
578 1 0.558516 0.205234 0.500000 
579 1 0.578437 0.205799 0.500000 
580 1 0.598367 0.206324 0.500000 
581 1 0.618301 0.206818 0.500000 
582 1 0.638238 0.207273 0.500000 
583 1 0.658181 0.207698 0.500000 
584 1 0.678127 0.208087 0.500000 
585 1 0.708368 0.191574 0.500000 
586 1 0.698076 0.208463 0.500000 
587 1 0.728322 0.191902 0.500000 
588 1 0.718033 0.208795 0.500000 
589 1 0.748278 0.192210 0.500000 
590 1 0.737997 0.209110 0.500000 
591 1 0.768237 0.192502 0.500000 
592 1 0.757961 0.209408 0.500000 
593 1 0.788200 0.192778 0.500000 
594 1 0.777929 0.209689 0.500000 
595 1 0.808169 0.193036 0.500000 
596 1 0.797901 0.209946 0.500000 
597 1 0.828138 0.193266 0.500000 
598 1 0.817877 0.210186 0.500000 
599 1 0.848114 0.193476 0.500000 
600 1 0.837859 0.210398 0.500000 
601 1 0.868092 0.193684 0.500000 
602 1 0.857842 0.210603 0.500000 
603 1 0.888069 0.193875 0.500000 
604 1 0.877831 0.210797 0.500000 
605 1 0.908051 0.194055 0.500000 
606 1 0.897820 0.210978 0.500000 
607 1 0.928038 0.194223 0.500000 
608 1 0.917811 0.211148 0.500000 
609 1 0.948021 0.194385 0.500000 
610 1 0.937802 0.211312 0.500000 
611 1 0.957807 0.211443 0.500000 
612 1 0.968031 0.194496 0.500000 
613 1 0.977825 0.211543 0.500000 
614 1 0.988043 0.194599 0.500000 
615 1 0.997847 0.211634 0.500000 
616 1 0.017654 0.218157 0.500000 
617 1 0.037684 0.218790 0.500000 
618 1 0.057718 0.219436 0.500000 
619 1 0.077773 0.220127 0.500000 
620 1 0.097831 0.220862 0.500000 
621 1 0.117895 0.221610 0.500000 
622 1 0.137957 0.222375 0.500000 
623 1 0.158021 0.223144 0.500000 
624 1 0.178085 0.223934 0.500000 
625 1 0.198149 0.224734 0.500000 
626 1 0.218210 0.225552 0.500000 
627 1 0.238267 0.226395 0.500000 
628 1 0.258315 0.227245 0.500000 
629 1 0.278350 0.228103 0.500000 
630 1 0.298376 0.228983 0.500000 
631 1 0.308786 0.212532 0.500000 
632 1 0.318401 0.229860 0.500000 
633 1 0.328801 0.213390 0.500000 
634 1 0.338407 0.230755 0.500000 
635 1 0.348798 0.214265 0.500000 
636 1 0.358399 0.231660 0.500000 
637 1 0.368779 0.215145 0.500000 
638 1 0.388746 0.216015 0.500000 
639 1 0.408703 0.216870 0.500000 
640 1 0.428655 0.217704 0.500000 
641 1 0.448588 0.218522 0.500000 
642 1 0.468513 0.219305 0.500000 
643 1 0.488434 0.220042 0.500000 
644 1 0.508349 0.220750 0.500000 
645 1 0.528269 0.221410 0.500000 
646 1 0.548192 0.222034 0.500000 
647 1 0.568117 0.222618 0.500000 
648 1 0.588049 0.223155 0.500000 
649 1 0.607984 0.223658 0.500000 
650 1 0.627927 0.224133 0.500000 
651 1 0.647873 0.224570 0.500000 
652 1 0.667827 0.224973 0.500000 
653 1 0.687783 0.225348 0.500000 
654 1 0.707747 0.225695 0.500000 
655 1 0.727710 0.226007 0.500000 
656 1 0.747678 0.226313 0.500000 
657 1 0.767655 0.226599 0.500000 
658 1 0.787636 0.226863 0.500000 
659 1 0.807616 0.227106 0.500000 
660 1 0.827605 0.227324 0.500000 
661 1 0.847597 0.227528 0.500000 
662 1 0.867592 0.227718 0.500000 
663 1 0.887590 0.227901 0.500000 
664 1 0.907585 0.228071 0.500000 
665 1 0.927581 0.228237 0.500000 
666 1 0.947580 0.228392 0.500000 
667 1 0.967605 0.228489 0.500000 
668 1 0.987634 0.228577 0.500000 
669 1 0.007189 0.234587 0.500000 
670 1 0.027214 0.235215 0.500000 
671 1 0.047243 0.235854 0.500000 
672 1 0.067275 0.236508 0.500000 
673 1 0.087339 0.237243 0.500000 
674 1 0.107403 0.237988 0.500000 
675 1 0.127464 0.238752 0.500000 
676 1 0.147532 0.239524 0.500000 
677 1 0.167598 0.240312 0.500000 
678 1 0.187667 0.241118 0.500000 
679 1 0.207736 0.241938 0.500000 
680 1 0.227799 0.242783 0.500000 
681 1 0.247861 0.243646 0.500000 
682 1 0.267910 0.244521 0.500000 
683 1 0.287948 0.245411 0.500000 
684 1 0.307984 0.246308 0.500000 
685 1 0.328001 0.247224 0.500000 
686 1 0.348004 0.248152 0.500000 
687 1 0.378382 0.232559 0.500000 
688 1 0.367996 0.249076 0.500000 
689 1 0.398349 0.233449 0.500000 
690 1 0.387973 0.250000 0.500000 
691 1 0.418302 0.234313 0.500000 
692 1 0.407936 0.250903 0.500000 
693 1 0.438241 0.235164 0.500000 
694 1 0.427881 0.251789 0.500000 
695 1 0.458173 0.235981 0.500000 
696 1 0.478096 0.236757 0.500000 
697 1 0.498011 0.237494 0.500000 
698 1 0.517931 0.238183 0.500000 
699 1 0.537855 0.238828 0.500000 
700 1 0.557783 0.239431 0.500000 
701 1 0.577719 0.239985 0.500000 
702 1 0.597657 0.240510 0.500000 
703 1 0.617602 0.240991 0.500000 
704 1 0.637556 0.241440 0.500000 
705 1 0.657517 0.241854 0.500000 
706 1 0.677479 0.242240 0.500000 
707 1 0.697448 0.242592 0.500000 
708 1 0.717419 0.242918 0.500000 
709 1 0.737387 0.243220 0.500000 
710 1 0.757364 0.243509 0.500000 
711 1 0.777352 0.243775 0.500000 
712 1 0.797343 0.244026 0.500000 
713 1 0.817338 0.244248 0.500000 
714 1 0.837341 0.244451 0.500000 
715 1 0.857344 0.244644 0.500000 
716 1 0.877346 0.244823 0.500000 
717 1 0.897352 0.244998 0.500000 
718 1 0.917357 0.245161 0.500000 
719 1 0.937367 0.245315 0.500000 
720 1 0.957383 0.245436 0.500000 
721 1 0.977417 0.245522 0.500000 
722 1 0.997455 0.245600 0.500000 
723 1 0.016737 0.251640 0.500000 
724 1 0.006256 0.268068 0.500000 
725 1 0.036760 0.252274 0.500000 
726 1 0.026272 0.268696 0.500000 
727 1 0.056787 0.252921 0.500000 
728 1 0.046292 0.269335 0.500000 
729 1 0.076842 0.253620 0.500000 
730 1 0.066319 0.269991 0.500000 
731 1 0.096904 0.254362 0.500000 
732 1 0.086381 0.270730 0.500000 
733 1 0.116965 0.255121 0.500000 
734 1 0.137030 0.255891 0.500000 
735 1 0.157097 0.256679 0.500000 
736 1 0.177167 0.257483 0.500000 
737 1 0.197241 0.258307 0.500000 
738 1 0.217309 0.259157 0.500000 
739 1 0.237374 0.260022 0.500000 
740 1 0.257435 0.260910 0.500000 
741 1 0.277488 0.261814 0.500000 
742 1 0.297534 0.262729 0.500000 
743 1 0.317567 0.263665 0.500000 
744 1 0.337587 0.264609 0.500000 
745 1 0.357591 0.265568 0.500000 
746 1 0.377575 0.266521 0.500000 
747 1 0.397543 0.267463 0.500000 
748 1 0.417498 0.268389 0.500000 
749 1 0.437447 0.269281 0.500000 
750 1 0.447818 0.252641 0.500000 
751 1 0.457381 0.270138 0.500000 
752 1 0.467747 0.253455 0.500000 
753 1 0.477307 0.270948 0.500000 
754 1 0.487670 0.254229 0.500000 
755 1 0.507587 0.254951 0.500000 
756 1 0.527511 0.255619 0.500000 
757 1 0.547440 0.256246 0.500000 
758 1 0.567377 0.256816 0.500000 
759 1 0.587320 0.257356 0.500000 
760 1 0.607272 0.257855 0.500000 
761 1 0.627230 0.258311 0.500000 
762 1 0.647193 0.258735 0.500000 
763 1 0.667161 0.259132 0.500000 
764 1 0.687136 0.259488 0.500000 
765 1 0.707114 0.259828 0.500000 
766 1 0.727096 0.260138 0.500000 
767 1 0.747081 0.260426 0.500000 
768 1 0.767073 0.260693 0.500000 
769 1 0.787071 0.260941 0.500000 
770 1 0.807074 0.261170 0.500000 
771 1 0.827080 0.261374 0.500000 
772 1 0.847091 0.261567 0.500000 
773 1 0.867104 0.261750 0.500000 
774 1 0.887115 0.261921 0.500000 
775 1 0.907127 0.262087 0.500000 
776 1 0.927141 0.262239 0.500000 
777 1 0.947159 0.262387 0.500000 
778 1 0.967200 0.262468 0.500000 
779 1 0.987245 0.262544 0.500000 
780 1 0.015779 0.285121 0.500000 
781 1 0.035792 0.285753 0.500000 
782 1 0.055810 0.286400 0.500000 
783 1 0.075854 0.287098 0.500000 
784 1 0.095908 0.287844 0.500000 
785 1 0.106447 0.271485 0.500000 
786 1 0.115971 0.288610 0.500000 
787 1 0.126513 0.272253 0.500000 
788 1 0.136041 0.289388 0.500000 
789 1 0.146582 0.273038 0.500000 
790 1 0.156114 0.290189 0.500000 
791 1 0.166653 0.273842 0.500000 
792 1 0.176190 0.291011 0.500000 
793 1 0.186725 0.274664 0.500000 
794 1 0.206795 0.275510 0.500000 
795 1 0.226870 0.276380 0.500000 
796 1 0.246939 0.277277 0.500000 
797 1 0.267003 0.278189 0.500000 
798 1 0.287059 0.279124 0.500000 
799 1 0.307104 0.280074 0.500000 
800 1 0.327143 0.281040 0.500000 
801 1 0.347159 0.282021 0.500000 
802 1 0.367162 0.283010 0.500000 
803 1 0.387143 0.283995 0.500000 
804 1 0.407107 0.284960 0.500000 
805 1 0.427065 0.285894 0.500000 
806 1 0.447003 0.286802 0.500000 
807 1 0.466930 0.287659 0.500000 
808 1 0.497234 0.271712 0.500000 
809 1 0.486855 0.288453 0.500000 
810 1 0.506789 0.289190 0.500000 
811 1 0.517160 0.272409 0.500000 
812 1 0.526726 0.289871 0.500000 
813 1 0.537089 0.273057 0.500000 
814 1 0.546666 0.290490 0.500000 
815 1 0.557030 0.273653 0.500000 
816 1 0.576974 0.274204 0.500000 
817 1 0.596926 0.274715 0.500000 
818 1 0.616887 0.275186 0.500000 
819 1 0.636857 0.275622 0.500000 
820 1 0.656836 0.276024 0.500000 
821 1 0.676819 0.276391 0.500000 
822 1 0.696800 0.276732 0.500000 
823 1 0.716793 0.277053 0.500000 
824 1 0.736790 0.277349 0.500000 
825 1 0.756793 0.277618 0.500000 
826 1 0.776800 0.277864 0.500000 
827 1 0.796811 0.278091 0.500000 
828 1 0.816825 0.278302 0.500000 
829 1 0.836838 0.278494 0.500000 
830 1 0.856860 0.278675 0.500000 
831 1 0.876883 0.278847 0.500000 
832 1 0.896902 0.279012 0.500000 
833 1 0.916922 0.279167 0.500000 
834 1 0.936948 0.279307 0.500000 
835 1 0.956982 0.279417 0.500000 
836 1 0.977036 0.279488 0.500000 
837 1 0.997089 0.279555 0.500000 
838 1 0.005284 0.301547 0.500000 
839 1 0.025288 0.302175 0.500000 
840 1 0.045299 0.302815 0.500000 
841 1 0.065313 0.303468 0.500000 
842 1 0.085365 0.304205 0.500000 
843 1 0.105421 0.304961 0.500000 
844 1 0.125483 0.305730 0.500000 
845 1 0.145551 0.306526 0.500000 
846 1 0.165621 0.307338 0.500000 
847 1 0.196264 0.291855 0.500000 
848 1 0.185701 0.308180 0.500000 
849 1 0.216336 0.292716 0.500000 
850 1 0.205782 0.309047 0.500000 
851 1 0.236415 0.293618 0.500000 
852 1 0.225860 0.309935 0.500000 
853 1 0.256492 0.294540 0.500000 
854 1 0.245940 0.310863 0.500000 
855 1 0.276559 0.295486 0.500000 
856 1 0.266017 0.311816 0.500000 
857 1 0.296616 0.296456 0.500000 
858 1 0.316667 0.297437 0.500000 
859 1 0.336702 0.298446 0.500000 
860 1 0.356715 0.299462 0.500000 
861 1 0.376715 0.300487 0.500000 
862 1 0.396697 0.301499 0.500000 
863 1 0.416664 0.302478 0.500000 
864 1 0.436608 0.303443 0.500000 
865 1 0.456542 0.304350 0.500000 
866 1 0.476475 0.305188 0.500000 
867 1 0.496406 0.305962 0.500000 
868 1 0.516342 0.306675 0.500000 
869 1 0.536287 0.307324 0.500000 
870 1 0.566611 0.291057 0.500000 
871 1 0.556238 0.307912 0.500000 
872 1 0.586566 0.291581 0.500000 
873 1 0.576202 0.308449 0.500000 
874 1 0.606531 0.292061 0.500000 
875 1 0.596175 0.308943 0.500000 
876 1 0.626510 0.292504 0.500000 
877 1 0.616153 0.309389 0.500000 
878 1 0.646494 0.292920 0.500000 
879 1 0.636141 0.309817 0.500000 
880 1 0.666488 0.293297 0.500000 
881 1 0.686484 0.293645 0.500000 