ITEM: TIMESTEP
4800
ITEM: NUMBER OF ATOMS
2850
ITEM: BOX BOUNDS ss ss pp
-28.0536 28.3253 
-28.9988 28.9984 
-0.5 0.5 
ITEM: ATOMS id type xs ys zs
1 1 0.012661 0.000000 0.500000 
2 1 0.032688 0.000597 0.500000 
3 1 0.052715 0.001202 0.500000 
4 1 0.072742 0.001814 0.500000 
5 1 0.092767 0.002433 0.500000 
6 1 0.112794 0.003060 0.500000 
7 1 0.132817 0.003697 0.500000 
8 1 0.152841 0.004338 0.500000 
9 1 0.172861 0.004988 0.500000 
10 1 0.192879 0.005643 0.500000 
11 1 0.212895 0.006305 0.500000 
12 1 0.232906 0.006973 0.500000 
13 1 0.252912 0.007645 0.500000 
14 1 0.272914 0.008319 0.500000 
15 1 0.292911 0.008997 0.500000 
16 1 0.312901 0.009676 0.500000 
17 1 0.332885 0.010356 0.500000 
18 1 0.352861 0.011033 0.500000 
19 1 0.372830 0.011707 0.500000 
20 1 0.392791 0.012376 0.500000 
21 1 0.022340 0.017073 0.500000 
22 1 0.042369 0.017677 0.500000 
23 1 0.062397 0.018289 0.500000 
24 1 0.082426 0.018911 0.500000 
25 1 0.102455 0.019539 0.500000 
26 1 0.122484 0.020177 0.500000 
27 1 0.142511 0.020822 0.500000 
28 1 0.162536 0.021475 0.500000 
29 1 0.182559 0.022136 0.500000 
30 1 0.202579 0.022803 0.500000 
31 1 0.222596 0.023475 0.500000 
32 1 0.242610 0.024155 0.500000 
33 1 0.262618 0.024839 0.500000 
34 1 0.282622 0.025527 0.500000 
35 1 0.302619 0.026217 0.500000 
36 1 0.322610 0.026908 0.500000 
37 1 0.342593 0.027600 0.500000 
38 1 0.362570 0.028289 0.500000 
39 1 0.382537 0.028974 0.500000 
40 1 0.402497 0.029655 0.500000 
41 1 0.412744 0.013039 0.500000 
42 1 0.422448 0.030326 0.500000 
43 1 0.432688 0.013694 0.500000 
44 1 0.442390 0.030989 0.500000 
45 1 0.452624 0.014337 0.500000 
46 1 0.462324 0.031639 0.500000 
47 1 0.472553 0.014968 0.500000 
48 1 0.482250 0.032276 0.500000 
49 1 0.492474 0.015584 0.500000 
50 1 0.512388 0.016184 0.500000 
51 1 0.532295 0.016766 0.500000 
52 1 0.552198 0.017330 0.500000 
53 1 0.572095 0.017873 0.500000 
54 1 0.591989 0.018396 0.500000 
55 1 0.611880 0.018896 0.500000 
56 1 0.631769 0.019373 0.500000 
57 1 0.651657 0.019829 0.500000 
58 1 0.671546 0.020261 0.500000 
59 1 0.691436 0.020670 0.500000 
60 1 0.711328 0.021058 0.500000 
61 1 0.731222 0.021423 0.500000 
62 1 0.751120 0.021768 0.500000 
63 1 0.771021 0.022094 0.500000 
64 1 0.790927 0.022399 0.500000 
65 1 0.810837 0.022687 0.500000 
66 1 0.830751 0.022958 0.500000 
67 1 0.850671 0.023211 0.500000 
68 1 0.870595 0.023449 0.500000 
69 1 0.890525 0.023674 0.500000 
70 1 0.910459 0.023884 0.500000 
71 1 0.930398 0.024080 0.500000 
72 1 0.950341 0.024267 0.500000 
73 1 0.970290 0.024443 0.500000 
74 1 0.990243 0.024606 0.500000 
75 1 0.011983 0.033545 0.500000 
76 1 0.032014 0.034148 0.500000 
77 1 0.021650 0.050615 0.500000 
78 1 0.052044 0.034760 0.500000 
79 1 0.041680 0.051227 0.500000 
80 1 0.072075 0.035381 0.500000 
81 1 0.061715 0.051847 0.500000 
82 1 0.092107 0.036012 0.500000 
83 1 0.081754 0.052482 0.500000 
84 1 0.112138 0.036650 0.500000 
85 1 0.132168 0.037297 0.500000 
86 1 0.152197 0.037952 0.500000 
87 1 0.172226 0.038617 0.500000 
88 1 0.192251 0.039288 0.500000 
89 1 0.212274 0.039967 0.500000 
90 1 0.232293 0.040654 0.500000 
91 1 0.252309 0.041345 0.500000 
92 1 0.272318 0.042042 0.500000 
93 1 0.292324 0.042743 0.500000 
94 1 0.312323 0.043447 0.500000 
95 1 0.332314 0.044150 0.500000 
96 1 0.352297 0.044856 0.500000 
97 1 0.372273 0.045557 0.500000 
98 1 0.392240 0.046254 0.500000 
99 1 0.412198 0.046944 0.500000 
100 1 0.432147 0.047626 0.500000 
101 1 0.452087 0.048297 0.500000 
102 1 0.472018 0.048954 0.500000 
103 1 0.502167 0.032896 0.500000 
104 1 0.491940 0.049595 0.500000 
105 1 0.522078 0.033498 0.500000 
106 1 0.511855 0.050220 0.500000 
107 1 0.541983 0.034081 0.500000 
108 1 0.531762 0.050823 0.500000 
109 1 0.561882 0.034643 0.500000 
110 1 0.551663 0.051406 0.500000 
111 1 0.581777 0.035184 0.500000 
112 1 0.571560 0.051966 0.500000 
113 1 0.601668 0.035702 0.500000 
114 1 0.591452 0.052503 0.500000 
115 1 0.621558 0.036195 0.500000 
116 1 0.641446 0.036666 0.500000 
117 1 0.661334 0.037110 0.500000 
118 1 0.681223 0.037533 0.500000 
119 1 0.701115 0.037931 0.500000 
120 1 0.721007 0.038307 0.500000 
121 1 0.740905 0.038660 0.500000 
122 1 0.760806 0.038993 0.500000 
123 1 0.780711 0.039305 0.500000 
124 1 0.800620 0.039597 0.500000 
125 1 0.820536 0.039873 0.500000 
126 1 0.840456 0.040130 0.500000 
127 1 0.860382 0.040369 0.500000 
128 1 0.880312 0.040595 0.500000 
129 1 0.900248 0.040807 0.500000 
130 1 0.920188 0.041005 0.500000 
131 1 0.940134 0.041192 0.500000 
132 1 0.960084 0.041368 0.500000 
133 1 0.980040 0.041531 0.500000 
134 1 1.000000 0.041686 0.500000 
135 1 0.011275 0.067077 0.500000 
136 1 0.031308 0.067688 0.500000 
137 1 0.051342 0.068307 0.500000 
138 1 0.071376 0.068936 0.500000 
139 1 0.091423 0.069591 0.500000 
140 1 0.101790 0.053128 0.500000 
141 1 0.111464 0.070250 0.500000 
142 1 0.121825 0.053779 0.500000 
143 1 0.131502 0.070915 0.500000 
144 1 0.141858 0.054439 0.500000 
145 1 0.151538 0.071591 0.500000 
146 1 0.161889 0.055109 0.500000 
147 1 0.171571 0.072275 0.500000 
148 1 0.181919 0.055788 0.500000 
149 1 0.201945 0.056473 0.500000 
150 1 0.221966 0.057167 0.500000 
151 1 0.241983 0.057866 0.500000 
152 1 0.261995 0.058571 0.500000 
153 1 0.282001 0.059282 0.500000 
154 1 0.302002 0.059997 0.500000 
155 1 0.321994 0.060714 0.500000 
156 1 0.341978 0.061431 0.500000 
157 1 0.361955 0.062148 0.500000 
158 1 0.381924 0.062861 0.500000 
159 1 0.401884 0.063566 0.500000 
160 1 0.421833 0.064264 0.500000 
161 1 0.441774 0.064952 0.500000 
162 1 0.461706 0.065629 0.500000 
163 1 0.481632 0.066288 0.500000 
164 1 0.501550 0.066930 0.500000 
165 1 0.521461 0.067551 0.500000 
166 1 0.541366 0.068150 0.500000 
167 1 0.561268 0.068726 0.500000 
168 1 0.581167 0.069278 0.500000 
169 1 0.601064 0.069803 0.500000 
170 1 0.611341 0.053013 0.500000 
171 1 0.620960 0.070304 0.500000 
172 1 0.631230 0.053499 0.500000 
173 1 0.640855 0.070778 0.500000 
174 1 0.651117 0.053960 0.500000 
175 1 0.671006 0.054396 0.500000 
176 1 0.660750 0.071226 0.500000 
177 1 0.690897 0.054806 0.500000 
178 1 0.680646 0.071648 0.500000 
179 1 0.710789 0.055192 0.500000 
180 1 0.700546 0.072044 0.500000 
181 1 0.730685 0.055554 0.500000 
182 1 0.720449 0.072417 0.500000 
183 1 0.750586 0.055894 0.500000 
184 1 0.770490 0.056213 0.500000 
185 1 0.790400 0.056511 0.500000 
186 1 0.810316 0.056789 0.500000 
187 1 0.830238 0.057049 0.500000 
188 1 0.850164 0.057294 0.500000 
189 1 0.870095 0.057522 0.500000 
190 1 0.890032 0.057734 0.500000 
191 1 0.909975 0.057934 0.500000 
192 1 0.929922 0.058120 0.500000 
193 1 0.949875 0.058294 0.500000 
194 1 0.969833 0.058458 0.500000 
195 1 0.989796 0.058613 0.500000 
196 1 0.020924 0.084144 0.500000 
197 1 0.040959 0.084763 0.500000 
198 1 0.060994 0.085390 0.500000 
199 1 0.081042 0.086039 0.500000 
200 1 0.101088 0.086707 0.500000 
201 1 0.121130 0.087380 0.500000 
202 1 0.141169 0.088060 0.500000 
203 1 0.161208 0.088749 0.500000 
204 1 0.191601 0.072967 0.500000 
205 1 0.181243 0.089449 0.500000 
206 1 0.211625 0.073668 0.500000 
207 1 0.201271 0.090156 0.500000 
208 1 0.221297 0.090872 0.500000 
209 1 0.231646 0.074376 0.500000 
210 1 0.241319 0.091595 0.500000 
211 1 0.251662 0.075089 0.500000 
212 1 0.261332 0.092326 0.500000 
213 1 0.271670 0.075809 0.500000 
214 1 0.291673 0.076536 0.500000 
215 1 0.311668 0.077265 0.500000 
216 1 0.331655 0.077995 0.500000 
217 1 0.351634 0.078726 0.500000 
218 1 0.371606 0.079455 0.500000 
219 1 0.391568 0.080178 0.500000 
220 1 0.411520 0.080893 0.500000 
221 1 0.431463 0.081599 0.500000 
222 1 0.451397 0.082293 0.500000 
223 1 0.471324 0.082971 0.500000 
224 1 0.491246 0.083632 0.500000 
225 1 0.511161 0.084272 0.500000 
226 1 0.531072 0.084889 0.500000 
227 1 0.550977 0.085481 0.500000 
228 1 0.570880 0.086047 0.500000 
229 1 0.590782 0.086590 0.500000 
230 1 0.610683 0.087104 0.500000 
231 1 0.630584 0.087593 0.500000 
232 1 0.650486 0.088053 0.500000 
233 1 0.670389 0.088487 0.500000 
234 1 0.690294 0.088894 0.500000 
235 1 0.710202 0.089276 0.500000 
236 1 0.730114 0.089635 0.500000 
237 1 0.740355 0.072765 0.500000 
238 1 0.750030 0.089969 0.500000 
239 1 0.760265 0.073092 0.500000 
240 1 0.769950 0.090282 0.500000 
241 1 0.780181 0.073397 0.500000 
242 1 0.789874 0.090574 0.500000 
243 1 0.800100 0.073681 0.500000 
244 1 0.809802 0.090843 0.500000 
245 1 0.820025 0.073946 0.500000 
246 1 0.829734 0.091098 0.500000 
247 1 0.839955 0.074196 0.500000 
248 1 0.849671 0.091336 0.500000 
249 1 0.859888 0.074428 0.500000 
250 1 0.869612 0.091559 0.500000 
251 1 0.879827 0.074646 0.500000 
252 1 0.889557 0.091767 0.500000 
253 1 0.899771 0.074851 0.500000 
254 1 0.909505 0.091962 0.500000 
255 1 0.919717 0.075041 0.500000 
256 1 0.929456 0.092145 0.500000 
257 1 0.939668 0.075221 0.500000 
258 1 0.949407 0.092323 0.500000 
259 1 0.959621 0.075390 0.500000 
260 1 0.979588 0.075542 0.500000 
261 1 0.999557 0.075685 0.500000 
262 1 0.010532 0.100598 0.500000 
263 1 0.030566 0.101214 0.500000 
264 1 0.050602 0.101839 0.500000 
265 1 0.070640 0.102476 0.500000 
266 1 0.090694 0.103150 0.500000 
267 1 0.110742 0.103831 0.500000 
268 1 0.130788 0.104518 0.500000 
269 1 0.150831 0.105211 0.500000 
270 1 0.170871 0.105917 0.500000 
271 1 0.190905 0.106633 0.500000 
272 1 0.210935 0.107355 0.500000 
273 1 0.230963 0.108087 0.500000 
274 1 0.250982 0.108828 0.500000 
275 1 0.270993 0.109575 0.500000 
276 1 0.281337 0.093061 0.500000 
277 1 0.290996 0.110327 0.500000 
278 1 0.301337 0.093804 0.500000 
279 1 0.310993 0.111084 0.500000 
280 1 0.321328 0.094547 0.500000 
281 1 0.330981 0.111844 0.500000 
282 1 0.341310 0.095291 0.500000 
283 1 0.361285 0.096035 0.500000 
284 1 0.381250 0.096777 0.500000 
285 1 0.401205 0.097510 0.500000 
286 1 0.421153 0.098235 0.500000 
287 1 0.441090 0.098949 0.500000 
288 1 0.461020 0.099646 0.500000 
289 1 0.480942 0.100326 0.500000 
290 1 0.500860 0.100984 0.500000 
291 1 0.520774 0.101620 0.500000 
292 1 0.540685 0.102231 0.500000 
293 1 0.560591 0.102815 0.500000 
294 1 0.580496 0.103371 0.500000 
295 1 0.600402 0.103901 0.500000 
296 1 0.620307 0.104404 0.500000 
297 1 0.640214 0.104878 0.500000 
298 1 0.660123 0.105323 0.500000 
299 1 0.680033 0.105742 0.500000 
300 1 0.699945 0.106133 0.500000 
301 1 0.719863 0.106501 0.500000 
302 1 0.739785 0.106845 0.500000 
303 1 0.759709 0.107165 0.500000 
304 1 0.779637 0.107465 0.500000 
305 1 0.799570 0.107742 0.500000 
306 1 0.819506 0.108001 0.500000 
307 1 0.839446 0.108244 0.500000 
308 1 0.859390 0.108472 0.500000 
309 1 0.879338 0.108684 0.500000 
310 1 0.899290 0.108882 0.500000 
311 1 0.919243 0.109070 0.500000 
312 1 0.939199 0.109250 0.500000 
313 1 0.969375 0.092475 0.500000 
314 1 0.959160 0.109410 0.500000 
315 1 0.989349 0.092617 0.500000 
316 1 0.979136 0.109550 0.500000 
317 1 0.999117 0.109681 0.500000 
318 1 0.020165 0.117663 0.500000 
319 1 0.040201 0.118287 0.500000 
320 1 0.060239 0.118920 0.500000 
321 1 0.080290 0.119581 0.500000 
322 1 0.100342 0.120269 0.500000 
323 1 0.120392 0.120962 0.500000 
324 1 0.140439 0.121662 0.500000 
325 1 0.160483 0.122373 0.500000 
326 1 0.180523 0.123095 0.500000 
327 1 0.200560 0.123826 0.500000 
328 1 0.220592 0.124564 0.500000 
329 1 0.240616 0.125315 0.500000 
330 1 0.260634 0.126073 0.500000 
331 1 0.280645 0.126837 0.500000 
332 1 0.300647 0.127606 0.500000 
333 1 0.320640 0.128380 0.500000 
334 1 0.340625 0.129154 0.500000 
335 1 0.350960 0.112603 0.500000 
336 1 0.360601 0.129932 0.500000 
337 1 0.370928 0.113362 0.500000 
338 1 0.380566 0.130704 0.500000 
339 1 0.390888 0.114114 0.500000 
340 1 0.400521 0.131467 0.500000 
341 1 0.410839 0.114857 0.500000 
342 1 0.420466 0.132223 0.500000 
343 1 0.430779 0.115593 0.500000 
344 1 0.450712 0.116312 0.500000 
345 1 0.470639 0.117012 0.500000 
346 1 0.490560 0.117690 0.500000 
347 1 0.510475 0.118344 0.500000 
348 1 0.530387 0.118974 0.500000 
349 1 0.550298 0.119578 0.500000 
350 1 0.570207 0.120151 0.500000 
351 1 0.590115 0.120695 0.500000 
352 1 0.610025 0.121211 0.500000 
353 1 0.629936 0.121701 0.500000 
354 1 0.649849 0.122158 0.500000 
355 1 0.669763 0.122589 0.500000 
356 1 0.689680 0.122992 0.500000 
357 1 0.709601 0.123368 0.500000 
358 1 0.729528 0.123720 0.500000 
359 1 0.749457 0.124049 0.500000 
360 1 0.769389 0.124356 0.500000 
361 1 0.789326 0.124640 0.500000 
362 1 0.809268 0.124905 0.500000 
363 1 0.829213 0.125152 0.500000 
364 1 0.849161 0.125385 0.500000 
365 1 0.869112 0.125601 0.500000 
366 1 0.889066 0.125803 0.500000 
367 1 0.909023 0.125994 0.500000 
368 1 0.928980 0.126175 0.500000 
369 1 0.948940 0.126349 0.500000 
370 1 0.968919 0.126487 0.500000 
371 1 0.988905 0.126616 0.500000 
372 1 0.009754 0.134110 0.500000 
373 1 0.029790 0.134729 0.500000 
374 1 0.019367 0.151171 0.500000 
375 1 0.049825 0.135360 0.500000 
376 1 0.039403 0.151799 0.500000 
377 1 0.069865 0.136003 0.500000 
378 1 0.089924 0.136694 0.500000 
379 1 0.109980 0.137393 0.500000 
380 1 0.130032 0.138099 0.500000 
381 1 0.150081 0.138816 0.500000 
382 1 0.170127 0.139545 0.500000 
383 1 0.190169 0.140281 0.500000 
384 1 0.210208 0.141029 0.500000 
385 1 0.230240 0.141787 0.500000 
386 1 0.250265 0.142555 0.500000 
387 1 0.270284 0.143331 0.500000 
388 1 0.290291 0.144113 0.500000 
389 1 0.310291 0.144901 0.500000 
390 1 0.330282 0.145692 0.500000 
391 1 0.350262 0.146484 0.500000 
392 1 0.370234 0.147275 0.500000 
393 1 0.390196 0.148061 0.500000 
394 1 0.410147 0.148839 0.500000 
395 1 0.440404 0.132965 0.500000 
396 1 0.430090 0.149603 0.500000 
397 1 0.460334 0.133687 0.500000 
398 1 0.450025 0.150349 0.500000 
399 1 0.480258 0.134387 0.500000 
400 1 0.469951 0.151074 0.500000 
401 1 0.500175 0.135064 0.500000 
402 1 0.489871 0.151774 0.500000 
403 1 0.520088 0.135712 0.500000 
404 1 0.540000 0.136334 0.500000 
405 1 0.559912 0.136927 0.500000 
406 1 0.579824 0.137487 0.500000 
407 1 0.599736 0.138018 0.500000 
408 1 0.619650 0.138521 0.500000 
409 1 0.639567 0.138992 0.500000 
410 1 0.659486 0.139435 0.500000 
411 1 0.679408 0.139850 0.500000 
412 1 0.699333 0.140237 0.500000 
413 1 0.719262 0.140596 0.500000 
414 1 0.739196 0.140934 0.500000 
415 1 0.759135 0.141247 0.500000 
416 1 0.779077 0.141538 0.500000 
417 1 0.799021 0.141808 0.500000 
418 1 0.818970 0.142060 0.500000 
419 1 0.838923 0.142297 0.500000 
420 1 0.858879 0.142518 0.500000 
421 1 0.878838 0.142724 0.500000 
422 1 0.898799 0.142917 0.500000 
423 1 0.918762 0.143100 0.500000 
424 1 0.938729 0.143276 0.500000 
425 1 0.958701 0.143428 0.500000 
426 1 0.978689 0.143555 0.500000 
427 1 0.998682 0.143674 0.500000 
428 1 0.008938 0.167610 0.500000 
429 1 0.028972 0.168234 0.500000 
430 1 0.049008 0.168868 0.500000 
431 1 0.059442 0.152437 0.500000 
432 1 0.069047 0.169517 0.500000 
433 1 0.079497 0.153110 0.500000 
434 1 0.089111 0.170223 0.500000 
435 1 0.099554 0.153813 0.500000 
436 1 0.109172 0.170938 0.500000 
437 1 0.119610 0.154524 0.500000 
438 1 0.139664 0.155246 0.500000 
439 1 0.129231 0.171664 0.500000 
440 1 0.159715 0.155980 0.500000 
441 1 0.179763 0.156724 0.500000 
442 1 0.199808 0.157477 0.500000 
443 1 0.219848 0.158243 0.500000 
444 1 0.239880 0.159021 0.500000 
445 1 0.259906 0.159807 0.500000 
446 1 0.279923 0.160604 0.500000 
447 1 0.299931 0.161405 0.500000 
448 1 0.319930 0.162211 0.500000 
449 1 0.339918 0.163023 0.500000 
450 1 0.359895 0.163830 0.500000 
451 1 0.379863 0.164637 0.500000 
452 1 0.399820 0.165438 0.500000 
453 1 0.419770 0.166226 0.500000 
454 1 0.439709 0.166998 0.500000 
455 1 0.459639 0.167749 0.500000 
456 1 0.479562 0.168474 0.500000 
457 1 0.499480 0.169172 0.500000 
458 1 0.509788 0.152447 0.500000 
459 1 0.519395 0.169839 0.500000 
460 1 0.529700 0.153089 0.500000 
461 1 0.539310 0.170468 0.500000 
462 1 0.549612 0.153698 0.500000 
463 1 0.559224 0.171064 0.500000 
464 1 0.569527 0.154277 0.500000 
465 1 0.579142 0.171627 0.500000 
466 1 0.589442 0.154823 0.500000 
467 1 0.609359 0.155340 0.500000 
468 1 0.629279 0.155824 0.500000 
469 1 0.649201 0.156280 0.500000 
470 1 0.669128 0.156707 0.500000 
471 1 0.689057 0.157104 0.500000 
472 1 0.708991 0.157475 0.500000 
473 1 0.728929 0.157818 0.500000 
474 1 0.748872 0.158138 0.500000 
475 1 0.768818 0.158436 0.500000 
476 1 0.788768 0.158712 0.500000 
477 1 0.808721 0.158968 0.500000 
478 1 0.828679 0.159209 0.500000 
479 1 0.848640 0.159434 0.500000 
480 1 0.868605 0.159644 0.500000 
481 1 0.888571 0.159840 0.500000 
482 1 0.908538 0.160025 0.500000 
483 1 0.928508 0.160201 0.500000 
484 1 0.948477 0.160370 0.500000 
485 1 0.968470 0.160496 0.500000 
486 1 0.988467 0.160611 0.500000 
487 1 0.018532 0.184668 0.500000 
488 1 0.038566 0.185299 0.500000 
489 1 0.058602 0.185942 0.500000 
490 1 0.078660 0.186625 0.500000 
491 1 0.098721 0.187343 0.500000 
492 1 0.118782 0.188072 0.500000 
493 1 0.138841 0.188812 0.500000 
494 1 0.149287 0.172401 0.500000 
495 1 0.158900 0.189563 0.500000 
496 1 0.169342 0.173151 0.500000 
497 1 0.178958 0.190330 0.500000 
498 1 0.189391 0.173912 0.500000 
499 1 0.199011 0.191109 0.500000 
500 1 0.209437 0.174683 0.500000 
501 1 0.219058 0.191901 0.500000 
502 1 0.229478 0.175471 0.500000 
503 1 0.249511 0.176266 0.500000 
504 1 0.269537 0.177074 0.500000 
505 1 0.289556 0.177890 0.500000 
506 1 0.309563 0.178713 0.500000 
507 1 0.329559 0.179541 0.500000 
508 1 0.349546 0.180369 0.500000 
509 1 0.369520 0.181196 0.500000 
510 1 0.389484 0.182020 0.500000 
511 1 0.409438 0.182833 0.500000 
512 1 0.429382 0.183632 0.500000 
513 1 0.449317 0.184410 0.500000 
514 1 0.469244 0.185163 0.500000 
515 1 0.489166 0.185886 0.500000 
516 1 0.509083 0.186579 0.500000 
517 1 0.529001 0.187232 0.500000 
518 1 0.548917 0.187850 0.500000 
519 1 0.568834 0.188430 0.500000 
520 1 0.588756 0.188975 0.500000 
521 1 0.599062 0.172157 0.500000 
522 1 0.608681 0.189489 0.500000 
523 1 0.618984 0.172657 0.500000 
524 1 0.628610 0.189970 0.500000 
525 1 0.638909 0.173125 0.500000 
526 1 0.648544 0.190420 0.500000 
527 1 0.658839 0.173563 0.500000 
528 1 0.668482 0.190839 0.500000 
529 1 0.678773 0.173971 0.500000 
530 1 0.688424 0.191227 0.500000 
531 1 0.698711 0.174351 0.500000 
532 1 0.718655 0.174705 0.500000 
533 1 0.738602 0.175031 0.500000 
534 1 0.758553 0.175335 0.500000 
535 1 0.778508 0.175618 0.500000 
536 1 0.798466 0.175878 0.500000 
537 1 0.818428 0.176122 0.500000 
538 1 0.838393 0.176351 0.500000 
539 1 0.858363 0.176563 0.500000 
540 1 0.878336 0.176763 0.500000 
541 1 0.898309 0.176950 0.500000 
542 1 0.918285 0.177127 0.500000 
543 1 0.938264 0.177297 0.500000 
544 1 0.958249 0.177440 0.500000 
545 1 0.978251 0.177553 0.500000 
546 1 0.998258 0.177659 0.500000 
547 1 0.008083 0.201103 0.500000 
548 1 0.028113 0.201727 0.500000 
549 1 0.048147 0.202367 0.500000 
550 1 0.068185 0.203017 0.500000 
551 1 0.088252 0.203738 0.500000 
552 1 0.108316 0.204468 0.500000 
553 1 0.128379 0.205211 0.500000 
554 1 0.148442 0.205965 0.500000 
555 1 0.168505 0.206731 0.500000 
556 1 0.188566 0.207517 0.500000 
557 1 0.208622 0.208317 0.500000 
558 1 0.239100 0.192708 0.500000 
559 1 0.228672 0.209131 0.500000 
560 1 0.259135 0.193526 0.500000 
561 1 0.248716 0.209959 0.500000 
562 1 0.279162 0.194355 0.500000 
563 1 0.268753 0.210799 0.500000 
564 1 0.299180 0.195194 0.500000 
565 1 0.288781 0.211653 0.500000 
566 1 0.319185 0.196038 0.500000 
567 1 0.339182 0.196887 0.500000 
568 1 0.359166 0.197737 0.500000 
569 1 0.379138 0.198583 0.500000 
570 1 0.399098 0.199422 0.500000 
571 1 0.419048 0.200249 0.500000 
572 1 0.438989 0.201056 0.500000 
573 1 0.458920 0.201840 0.500000 
574 1 0.478845 0.202590 0.500000 
575 1 0.498765 0.203310 0.500000 
576 1 0.518684 0.203989 0.500000 
577 1 0.538601 0.204631 0.500000 
578 1 0.558521 0.205232 0.500000 
579 1 0.578445 0.205792 0.500000 
580 1 0.598373 0.206321 0.500000 
581 1 0.618305 0.206815 0.500000 
582 1 0.638242 0.207277 0.500000 
583 1 0.658184 0.207707 0.500000 
584 1 0.678131 0.208106 0.500000 
585 1 0.708371 0.191590 0.500000 
586 1 0.698082 0.208476 0.500000 
587 1 0.728324 0.191926 0.500000 
588 1 0.718039 0.208819 0.500000 
589 1 0.748281 0.192236 0.500000 
590 1 0.738000 0.209138 0.500000 
591 1 0.768240 0.192524 0.500000 
592 1 0.757964 0.209434 0.500000 
593 1 0.788204 0.192791 0.500000 
594 1 0.777933 0.209703 0.500000 
595 1 0.808171 0.193038 0.500000 
596 1 0.797907 0.209955 0.500000 
597 1 0.828142 0.193268 0.500000 
598 1 0.817885 0.210187 0.500000 
599 1 0.848118 0.193483 0.500000 
600 1 0.837867 0.210404 0.500000 
601 1 0.868096 0.193686 0.500000 
602 1 0.857850 0.210608 0.500000 
603 1 0.888077 0.193875 0.500000 
604 1 0.877838 0.210798 0.500000 
605 1 0.908058 0.194052 0.500000 
606 1 0.897827 0.210978 0.500000 
607 1 0.928040 0.194223 0.500000 
608 1 0.917817 0.211149 0.500000 
609 1 0.948021 0.194385 0.500000 
610 1 0.937809 0.211310 0.500000 
611 1 0.957807 0.211443 0.500000 
612 1 0.968031 0.194496 0.500000 
613 1 0.977825 0.211543 0.500000 
614 1 0.988043 0.194599 0.500000 
615 1 0.997847 0.211634 0.500000 
616 1 0.017654 0.218157 0.500000 
617 1 0.037684 0.218790 0.500000 
618 1 0.057718 0.219436 0.500000 
619 1 0.077776 0.220126 0.500000 
620 1 0.097838 0.220856 0.500000 
621 1 0.117901 0.221599 0.500000 
622 1 0.137968 0.222355 0.500000 
623 1 0.158036 0.223124 0.500000 
624 1 0.178100 0.223909 0.500000 
625 1 0.198164 0.224714 0.500000 
626 1 0.218222 0.225536 0.500000 
627 1 0.238275 0.226373 0.500000 
628 1 0.258321 0.227224 0.500000 
629 1 0.278360 0.228089 0.500000 
630 1 0.298388 0.228969 0.500000 
631 1 0.308798 0.212516 0.500000 
632 1 0.318406 0.229855 0.500000 
633 1 0.328803 0.213382 0.500000 
634 1 0.338410 0.230748 0.500000 
635 1 0.348797 0.214255 0.500000 
636 1 0.358404 0.231643 0.500000 
637 1 0.368781 0.215126 0.500000 
638 1 0.388750 0.215992 0.500000 
639 1 0.408706 0.216848 0.500000 
640 1 0.428652 0.217683 0.500000 
641 1 0.448586 0.218499 0.500000 
642 1 0.468515 0.219282 0.500000 
643 1 0.488438 0.220031 0.500000 
644 1 0.508359 0.220740 0.500000 
645 1 0.528278 0.221407 0.500000 
646 1 0.548200 0.222030 0.500000 
647 1 0.568127 0.222610 0.500000 
648 1 0.588056 0.223154 0.500000 
649 1 0.607991 0.223662 0.500000 
650 1 0.627931 0.224135 0.500000 
651 1 0.647877 0.224576 0.500000 
652 1 0.667828 0.224985 0.500000 
653 1 0.687786 0.225365 0.500000 
654 1 0.707748 0.225715 0.500000 
655 1 0.727714 0.226040 0.500000 
656 1 0.747685 0.226342 0.500000 
657 1 0.767662 0.226618 0.500000 
658 1 0.787641 0.226873 0.500000 
659 1 0.807624 0.227109 0.500000 
660 1 0.827611 0.227326 0.500000 
661 1 0.847601 0.227532 0.500000 
662 1 0.867594 0.227723 0.500000 
663 1 0.887590 0.227903 0.500000 
664 1 0.907586 0.228074 0.500000 
665 1 0.927584 0.228237 0.500000 
666 1 0.947580 0.228392 0.500000 
667 1 0.967605 0.228489 0.500000 
668 1 0.987634 0.228577 0.500000 
669 1 0.007189 0.234587 0.500000 
670 1 0.027214 0.235215 0.500000 
671 1 0.047243 0.235854 0.500000 
672 1 0.067275 0.236508 0.500000 
673 1 0.087342 0.237237 0.500000 
674 1 0.107407 0.237979 0.500000 
675 1 0.127475 0.238734 0.500000 
676 1 0.147545 0.239503 0.500000 
677 1 0.167616 0.240291 0.500000 
678 1 0.187683 0.241097 0.500000 
679 1 0.207749 0.241922 0.500000 
680 1 0.227811 0.242766 0.500000 
681 1 0.247867 0.243627 0.500000 
682 1 0.267917 0.244503 0.500000 
683 1 0.287958 0.245397 0.500000 
684 1 0.307989 0.246301 0.500000 
685 1 0.328006 0.247215 0.500000 
686 1 0.348009 0.248135 0.500000 
687 1 0.378384 0.232537 0.500000 
688 1 0.367999 0.249056 0.500000 
689 1 0.398349 0.233425 0.500000 
690 1 0.387975 0.249975 0.500000 
691 1 0.418302 0.234292 0.500000 
692 1 0.407939 0.250879 0.500000 
693 1 0.438242 0.235142 0.500000 
694 1 0.427887 0.251764 0.500000 
695 1 0.458174 0.235959 0.500000 
696 1 0.478099 0.236741 0.500000 
697 1 0.498023 0.237481 0.500000 
698 1 0.517946 0.238177 0.500000 
699 1 0.537870 0.238825 0.500000 
700 1 0.557799 0.239426 0.500000 
701 1 0.577730 0.239987 0.500000 
702 1 0.597668 0.240510 0.500000 
703 1 0.617611 0.240997 0.500000 
704 1 0.637561 0.241447 0.500000 
705 1 0.657517 0.241866 0.500000 
706 1 0.677479 0.242253 0.500000 
707 1 0.697450 0.242613 0.500000 
708 1 0.717423 0.242946 0.500000 
709 1 0.737400 0.243251 0.500000 
710 1 0.757384 0.243533 0.500000 
711 1 0.777370 0.243792 0.500000 
712 1 0.797361 0.244031 0.500000 
713 1 0.817354 0.244253 0.500000 
714 1 0.837351 0.244457 0.500000 
715 1 0.857350 0.244650 0.500000 
716 1 0.877352 0.244830 0.500000 
717 1 0.897356 0.245001 0.500000 
718 1 0.917361 0.245161 0.500000 
719 1 0.937369 0.245316 0.500000 
720 1 0.957383 0.245436 0.500000 
721 1 0.977417 0.245522 0.500000 
722 1 0.997455 0.245600 0.500000 
723 1 0.016737 0.251640 0.500000 
724 1 0.006256 0.268068 0.500000 
725 1 0.036760 0.252274 0.500000 
726 1 0.026272 0.268696 0.500000 
727 1 0.056787 0.252921 0.500000 
728 1 0.046292 0.269335 0.500000 
729 1 0.076840 0.253615 0.500000 
730 1 0.066319 0.269991 0.500000 
731 1 0.096901 0.254352 0.500000 
732 1 0.086381 0.270723 0.500000 
733 1 0.116967 0.255105 0.500000 
734 1 0.137036 0.255872 0.500000 
735 1 0.157108 0.256658 0.500000 
736 1 0.177180 0.257465 0.500000 
737 1 0.197253 0.258291 0.500000 
738 1 0.217323 0.259139 0.500000 
739 1 0.237389 0.260007 0.500000 
740 1 0.257451 0.260894 0.500000 
741 1 0.277503 0.261799 0.500000 
742 1 0.297547 0.262720 0.500000 
743 1 0.317578 0.263654 0.500000 
744 1 0.337595 0.264598 0.500000 
745 1 0.357597 0.265547 0.500000 
746 1 0.377583 0.266498 0.500000 
747 1 0.397557 0.267437 0.500000 
748 1 0.417514 0.268362 0.500000 
749 1 0.437458 0.269260 0.500000 
750 1 0.447825 0.252619 0.500000 
751 1 0.457391 0.270120 0.500000 
752 1 0.467754 0.253439 0.500000 
753 1 0.477319 0.270933 0.500000 
754 1 0.487678 0.254212 0.500000 
755 1 0.507603 0.254938 0.500000 
756 1 0.527530 0.255615 0.500000 
757 1 0.547460 0.256241 0.500000 
758 1 0.567395 0.256821 0.500000 
759 1 0.587335 0.257359 0.500000 
760 1 0.607282 0.257859 0.500000 
761 1 0.627237 0.258321 0.500000 
762 1 0.647199 0.258749 0.500000 
763 1 0.667168 0.259146 0.500000 
764 1 0.687143 0.259511 0.500000 
765 1 0.707123 0.259852 0.500000 
766 1 0.727109 0.260163 0.500000 
767 1 0.747099 0.260449 0.500000 
768 1 0.767092 0.260714 0.500000 
769 1 0.787089 0.260956 0.500000 
770 1 0.807090 0.261180 0.500000 
771 1 0.827094 0.261386 0.500000 
772 1 0.847101 0.261578 0.500000 
773 1 0.867108 0.261759 0.500000 
774 1 0.887119 0.261929 0.500000 
775 1 0.907132 0.262088 0.500000 
776 1 0.927146 0.262241 0.500000 
777 1 0.947159 0.262387 0.500000 
778 1 0.967200 0.262468 0.500000 
779 1 0.987245 0.262544 0.500000 
780 1 0.015779 0.285121 0.500000 
781 1 0.035792 0.285753 0.500000 
782 1 0.055810 0.286400 0.500000 
783 1 0.075856 0.287095 0.500000 
784 1 0.095912 0.287835 0.500000 
785 1 0.106445 0.271470 0.500000 
786 1 0.115975 0.288592 0.500000 
787 1 0.126514 0.272235 0.500000 
788 1 0.136044 0.289368 0.500000 
789 1 0.146585 0.273017 0.500000 
790 1 0.156117 0.290167 0.500000 
791 1 0.166658 0.273820 0.500000 
792 1 0.176194 0.290985 0.500000 
793 1 0.186735 0.274643 0.500000 
794 1 0.206811 0.275494 0.500000 
795 1 0.226884 0.276366 0.500000 
796 1 0.246955 0.277260 0.500000 
797 1 0.267020 0.278176 0.500000 
798 1 0.287077 0.279110 0.500000 
799 1 0.307123 0.280064 0.500000 
800 1 0.327154 0.281030 0.500000 
801 1 0.347171 0.282007 0.500000 
802 1 0.367172 0.282990 0.500000 
803 1 0.387158 0.283967 0.500000 
804 1 0.407124 0.284933 0.500000 
805 1 0.427077 0.285876 0.500000 
806 1 0.447016 0.286784 0.500000 
807 1 0.466948 0.287639 0.500000 
808 1 0.497245 0.271693 0.500000 
809 1 0.486877 0.288441 0.500000 
810 1 0.506809 0.289179 0.500000 
811 1 0.517175 0.272398 0.500000 
812 1 0.526745 0.289860 0.500000 
813 1 0.537109 0.273053 0.500000 
814 1 0.546688 0.290486 0.500000 
815 1 0.557048 0.273654 0.500000 
816 1 0.576992 0.274210 0.500000 
817 1 0.596944 0.274723 0.500000 
818 1 0.616905 0.275197 0.500000 
819 1 0.636872 0.275635 0.500000 
820 1 0.656847 0.276039 0.500000 
821 1 0.676830 0.276412 0.500000 
822 1 0.696816 0.276759 0.500000 
823 1 0.716811 0.277077 0.500000 
824 1 0.736808 0.277368 0.500000 
825 1 0.756808 0.277638 0.500000 
826 1 0.776814 0.277883 0.500000 
827 1 0.796823 0.278108 0.500000 
828 1 0.816836 0.278317 0.500000 
829 1 0.836850 0.278510 0.500000 
830 1 0.856866 0.278689 0.500000 
831 1 0.876883 0.278859 0.500000 
832 1 0.896903 0.279016 0.500000 
833 1 0.916926 0.279166 0.500000 
834 1 0.936951 0.279310 0.500000 
835 1 0.956982 0.279417 0.500000 
836 1 0.977036 0.279488 0.500000 
837 1 0.997089 0.279555 0.500000 
838 1 0.005284 0.301547 0.500000 
839 1 0.025288 0.302175 0.500000 
840 1 0.045299 0.302815 0.500000 
841 1 0.065313 0.303468 0.500000 
842 1 0.085368 0.304200 0.500000 
843 1 0.105425 0.304949 0.500000 
844 1 0.125488 0.305715 0.500000 
845 1 0.145557 0.306506 0.500000 
846 1 0.165632 0.307319 0.500000 
847 1 0.196272 0.291831 0.500000 
848 1 0.185711 0.308157 0.500000 
849 1 0.216351 0.292706 0.500000 
850 1 0.205791 0.309028 0.500000 
851 1 0.236430 0.293602 0.500000 
852 1 0.225874 0.309925 0.500000 
853 1 0.256504 0.294526 0.500000 
854 1 0.245957 0.310851 0.500000 
855 1 0.276575 0.295472 0.500000 
856 1 0.266039 0.311805 0.500000 
857 1 0.296637 0.296441 0.500000 
858 1 0.316686 0.297432 0.500000 
859 1 0.336718 0.298433 0.500000 
860 1 0.356734 0.299447 0.500000 
861 1 0.376735 0.300463 0.500000 
862 1 0.396714 0.301473 0.500000 
863 1 0.416674 0.302463 0.500000 
864 1 0.436620 0.303423 0.500000 
865 1 0.456556 0.304328 0.500000 
866 1 0.476489 0.305174 0.500000 
867 1 0.496423 0.305954 0.500000 
868 1 0.516361 0.306666 0.500000 
869 1 0.536307 0.307316 0.500000 
870 1 0.566636 0.291061 0.500000 
871 1 0.556261 0.307913 0.500000 
872 1 0.586593 0.291589 0.500000 
873 1 0.576224 0.308455 0.500000 
874 1 0.606559 0.292075 0.500000 
875 1 0.596197 0.308954 0.500000 
876 1 0.626533 0.292523 0.500000 
877 1 0.616180 0.309411 0.500000 
878 1 0.646515 0.292935 0.500000 
879 1 0.636172 0.309833 0.500000 
880 1 0.666505 0.293315 0.500000 
881 1 0.686501 0.293666 0.500000 