           1
           3
           3
           3
           3
 
           3           2
   0.0000000000000000        0.0000000000000000     
   0.0000000000000000        0.0000000000000000     
   0.0000000000000000        0.0000000000000000     
 
           3
   1.0000000000000000     
   1.0000000000000000     
   1.0000000000000000     
 
           3
   0.0000000000000000     
   1.0471975511965976     
  -1.0471975511965976     
 
