           1
          10
           2
           0
           0
   1.0000000000000000     
  0.29999999999999999     
