           1
   1.9159999999999999     
 inter1new           
        3002           3
   1.0000000000000000E-008   2083.0202892299999        8713.1162290499997     
  0.10000000000000001        1211.7087534600000        8713.1162290499997     
  0.10063353999999999        1206.1886064700000        8693.5616959199997     
  0.10126709000000000        1200.6932368099999        8654.5397714100000     
  0.10190063000000001        1195.2225340600000        8615.6917434499992     
  0.10253418000000000        1189.7763883099999        8577.0168398200003     
  0.10316772000000000        1184.3546901200000        8538.5142917600006     
  0.10380127000000000        1178.9573305300000        8500.1833338699998     
  0.10443481000000000        1173.5842010700001        8462.0232041899999     
  0.10506836000000000        1168.2351937500000        8424.0331441100006     
  0.10570190000000000        1162.9102010800000        8386.2123983900001     
  0.10633545000000000        1157.6091160200001        8348.5602151399999     
  0.10696899000000000        1152.3318320200001        8311.0758458000000     
  0.10760253000000000        1147.0782429999999        8273.7585451300001     
  0.10823608000000000        1141.8482433400000        8236.6075711899994     
  0.10886962000000000        1136.6417279000000        8199.6221853400002     
  0.10950317000000000        1131.4585920200000        8162.8016521999998     
  0.11013671000000000        1126.2987314800000        8126.1452396599998     
  0.11077026000000000        1121.1620425300000        8089.6522188500003     
  0.11140380000000000        1116.0484218900001        8053.3218641300000     
  0.11203734999999999        1110.9577667399999        8017.1534530899999     
  0.11267089000000000        1105.8899747099999        7981.1462664900000     
  0.11330443000000000        1100.8449438600001        7945.2995883300000     
  0.11393797999999999        1095.8225727600000        7909.6127057300000     
  0.11457152000000000        1090.8227603800001        7874.0849090100000     
  0.11520507000000001        1085.8454061499999        7838.7154916099998     
  0.11583860999999999        1080.8904099700001        7803.5037501200004     
  0.11647216000000001        1075.9576721599999        7768.4489842399998     
  0.11710569999999999        1071.0470934800001        7733.5504967799998     
  0.11773925000000000        1066.1585751600001        7698.8075936300002     
  0.11837279000000001        1061.2920188400001        7664.2195837700001     
  0.11900634000000000        1056.4473266099999        7629.7857792300001     
  0.11963988000000000        1051.6244009800000        7595.5054951000002     
  0.12027342000000001        1046.8231449200000        7561.3780495100000     
  0.12090697000000000        1042.0434618100001        7527.4027636000001     
  0.12154051000000000        1037.2852554599999        7493.5789615300000     
  0.12217406000000000        1032.5484301100000        7459.9059704600004     
  0.12280760000000000        1027.8328904400000        7426.3831204999997     
  0.12344115000000000        1023.1385415300000        7393.0097447799999     
  0.12407469000000000        1018.4652888900000        7359.7851793600003     
  0.12470824000000000        1013.8130384700000        7326.7087632299999     
  0.12534178000000001        1009.1816966000000        7293.7798383400004     
  0.12597533000000000        1004.5711700500000        7260.9977495300000     
  0.12660887000000001        999.98136599999998        7228.3618445700004     
  0.12724241000000000        995.41219205000004        7195.8714741000003     
  0.12787596000000001        990.86355619999995        7163.5259916599998     
  0.12850950000000000        986.33536686000002        7131.3247536299996     
  0.12914305000000001        981.82753284000000        7099.2671192700000     
  0.12977659000000000        977.33996336999996        7067.3524506699996     
  0.13041014000000001        972.87256807999995        7035.5801127300001     
  0.13104368000000000        968.42525698999998        7003.9494732000003     
  0.13167723000000001        963.99794053999995        6972.4599026100004     
  0.13231076999999999        959.59052954000003        6941.1107742800004     
  0.13294431000000001        955.20293521999997        6909.9014643299997     
  0.13357785999999999        950.83506920000002        6878.8313516099997     
  0.13421140000000001        946.48684347999995        6847.8998177699996     
  0.13484494999999999        942.15817045999995        6817.1062471499999     
  0.13547849000000001        937.84896293999998        6786.4500268700003     
  0.13611203999999999        933.55913408000004        6755.9305467300001     
  0.13674558000000001        929.28859746000001        6725.5471992599996     
  0.13737912999999999        925.03726701000005        6695.2993796600003     
  0.13801267000000000        920.80505705999997        6665.1864858299996     
  0.13864621999999999        916.59188232999998        6635.2079183300002     
  0.13927976000000000        912.39765790000001        6605.3630803899996     
  0.13991329999999999        908.22229922999998        6575.6513778799999     
  0.14054685000000000        904.06572217999997        6546.0722192800004     
  0.14118038999999999        899.92784294000001        6516.6250157400000     
  0.14181394000000000        895.80857810999998        6487.3091809699999     
  0.14244747999999999        891.70784463999996        6458.1241313299997     
  0.14308103000000000        887.62555986999996        6429.0692857300000     
  0.14371457000000001        883.56164148000005        6400.1440656699997     
  0.14434812000000000        879.51600753000002        6371.3478952200003     
  0.14498166000000001        875.48857645999999        6342.6802009900002     
  0.14561520999999999        871.47926702999996        6314.1404121400001     
  0.14624875000000001        867.48799841000005        6285.7279603699999     
  0.14688229000000000        863.51469009000004        6257.4422798899996     
  0.14751584000000001        859.55926194000006        6229.2828074099998     
  0.14814938000000000        855.62163418000000        6201.2489821600002     
  0.14878293000000001        851.70172738999997        6173.3402458399996     
  0.14941647000000000        847.79946247999999        6145.5560426299999     
  0.15005002000000001        843.91476074000002        6117.8958191800002     
  0.15068355999999999        840.04754379999997        6090.3590245799996     
  0.15131711000000000        836.19773364000002        6062.9451103700003     
  0.15195064999999999        832.36525257000005        6035.6535305300004     
  0.15258419000000001        828.55002325999999        6008.4837414499998     
  0.15321773999999999        824.75196873000004        5981.4352019400003     
  0.15385128000000001        820.97101234000002        5954.5073732000001     
  0.15448482999999999        817.20707775999995        5927.6997188300002     
  0.15511837000000001        813.46008904999997        5901.0117047900003     
  0.15575191999999999        809.72997056999998        5874.4427994400003     
  0.15638546000000000        806.01664702000005        5847.9924734500000     
  0.15701900999999999        802.32004345999997        5821.6601998899996     
  0.15765255000000000        798.64008524999997        5795.4454541400000     
  0.15828610000000001        794.97669810000002        5769.3477138899998     
  0.15891964000000000        791.32980805000000        5743.3664591899997     
  0.15955317999999999        787.69934147000004        5717.5011723500002     
  0.16018673000000000        784.08522503999995        5691.7513380000000     
  0.16082026999999999        780.48738578999996        5666.1164430600002     
  0.16145382000000000        776.90575105999994        5640.5959767000004     
  0.16208736000000001        773.34024851000004        5615.1894303899999     
  0.16272091000000000        769.79080612999996        5589.8962978299996     
  0.16335445000000001        766.25735223000004        5564.7160749699997     
  0.16398799999999999        762.73981544000003        5539.6482599999999     
  0.16462154000000001        759.23812468999995        5514.6923533299996     
  0.16525508999999999        755.75220924999996        5489.8478575999998     
  0.16588863000000001        752.28199870000003        5465.1142776200004     
  0.16652217000000000        748.82742291000000        5440.4911204500004     
  0.16715572000000001        745.38841207999997        5415.9778952799998     
  0.16778926000000000        741.96489672999996        5391.5741135199996     
  0.16842281000000001        738.55680767000001        5367.2792887200003     
  0.16905634999999999        735.16407602000004        5343.0929366000000     
  0.16968990000000000        731.78663323000001        5319.0145750299998     
  0.17032343999999999        728.42441100999997        5295.0437240000001     
  0.17095699000000000        725.07734141000003        5271.1799056500004     
  0.17159052999999999        721.74535677999995        5247.4226442400004     
  0.17222407000000001        718.42838973999994        5223.7714661099999     
  0.17285761999999999        715.12637326000004        5200.2258997299996     
  0.17349116000000001        711.83924056000001        5176.7854756600000     
  0.17412470999999999        708.56692516999999        5153.4497265299997     
  0.17475825000000000        705.30936094000003        5130.2181870400000     
  0.17539179999999999        702.06648199000006        5107.0903939700002     
  0.17602534000000000        698.83822272999998        5084.0658861399997     
  0.17665889000000001        695.62451787999998        5061.1442044300002     
  0.17729243000000000        692.42530242999999        5038.3248917299998     
  0.17792598000000001        689.24051168000005        5015.6074929899996     
  0.17855952000000000        686.07008120000000        4992.9915551499998     
  0.17919305999999999        682.91394685000000        4970.4766271799999     
  0.17982661000000000        679.77204479000000        4948.0622600500001     
  0.18046015000000001        676.64431145000003        4925.7480066899998     
  0.18109370000000000        673.53068353000003        4903.5334220599998     
  0.18172724000000001        670.43109804000005        4881.4180630499995     
  0.18236078999999999        667.34549225000001        4859.4014885600000     
  0.18299433000000001        664.27380372000005        4837.4832594000000     
  0.18362787999999999        661.21597027999996        4815.6629383600002     
  0.18426142000000001        658.17193004000001        4793.9400901600002     
  0.18489496000000000        655.14162138999995        4772.3142814499997     
  0.18552851000000001        652.12498297000002        4750.7850807900004     
  0.18616205000000000        649.12195372999997        4729.3520586799996     
  0.18679560000000001        646.13247286000001        4708.0147875100001     
  0.18742913999999999        643.15647983999997        4686.7728415700003     
  0.18806269000000000        640.19391441000005        4665.6257970200004     
  0.18869622999999999        637.24471658000004        4644.5732319199997     
  0.18932978000000000        634.30882661999999        4623.6147262100003     
  0.18996331999999999        631.38618508000002        4602.7498616700004     
  0.19059687000000000        628.47673276000000        4581.9782219500003     
  0.19123040999999999        625.58041074000005        4561.2993925299997     
  0.19186395000000001        622.69716033999998        4540.7129607600000     
  0.19249749999999999        619.82692315999998        4520.2185157800004     
  0.19313104000000000        616.96964104999995        4499.8156485899999     
  0.19376458999999999        614.12525612000002        4479.5039519800002     
  0.19439813000000000        611.29371073000004        4459.2830205600003     
  0.19503168000000001        608.47494752000000        4439.1524507200002     
  0.19566522000000000        605.66890936000004        4419.1118406599999     
  0.19629877000000001        602.87553938999997        4399.1607903599997     
  0.19693231000000000        600.09478098000000        4379.2989015599996     
  0.19756586000000001        597.32657778999999        4359.5257777799998     
  0.19819940000000000        594.57087369999999        4339.8410242999998     
  0.19883294000000001        591.82761284000003        4320.2442481300004     
  0.19946649000000000        589.09673959999998        4300.7350580599996     
  0.20010003000000001        586.37819863000004        4281.3130645700003     
  0.20073357999999999        583.67193479000002        4261.9778799100004     
  0.20136712000000001        580.97789321000005        4242.7291180299999     
  0.20200066999999999        578.29601926999999        4223.5663945799997     
  0.20263421000000001        575.62625857000000        4204.4893269499998     
  0.20326775999999999        572.96855696000000        4185.4975341899999     
  0.20390130000000001        570.32286055999998        4166.5906370599996     
  0.20453484000000000        567.68911567999999        4147.7682580100000     
  0.20516839000000001        565.06726890000004        4129.0300211499998     
  0.20580192999999999        562.45726703000003        4110.3755522499996     
  0.20643548000000000        559.85905713000000        4091.8044787600002     
  0.20706901999999999        557.27258646999996        4073.3164297799999     
  0.20770257000000000        554.69780257000002        4054.9110360400000     
  0.20833610999999999        552.13465317999999        4036.5879299200001     
  0.20896966000000000        549.58308627999997        4018.3467454400002     
  0.20960319999999999        547.04305009999996        4000.1871182099999     
  0.21023675000000000        544.51449306999996        3982.1086854999999     
  0.21087028999999999        541.99736386999996        3964.1110861500001     
  0.21150383000000000        539.49161140000001        3946.1939606400001     
  0.21213737999999999        536.99718479000001        3928.3569510100001     
  0.21277092000000000        534.51403340000002        3910.5997009100001     
  0.21340447000000001        532.04210680999995        3892.9218555600000     
  0.21403801000000000        529.58135483000001        3875.3230617600002     
  0.21467156000000001        527.13172746999999        3857.8029678799999     
  0.21530510000000000        524.69317501000000        3840.3612238400001     
  0.21593865000000001        522.26564789999998        3822.9974811200000     
  0.21657219000000000        519.84909684000002        3805.7113927400001     
  0.21720574000000001        517.44347273999995        3788.5026132799999     
  0.21783928000000000        515.04872674000001        3771.3707988100000     
  0.21847282000000001        512.66481017000001        3754.3156069800002     
  0.21910636999999999        510.29167461999998        3737.3366969200001     
  0.21973991000000001        507.92927185000002        3720.4337292700002     
  0.22037345999999999        505.57755385000002        3703.6063662100000     
  0.22100700000000001        503.23647284999998        3686.8542714000000     
  0.22164054999999999        500.90598125000002        3670.1771099699999     
  0.22227409000000001        498.58603169999998        3653.5745485600000     
  0.22290763999999999        496.27657701999999        3637.0462553100001     
  0.22354118000000001        493.97757029000002        3620.5918997799999     
  0.22417471999999999        491.68896475000003        3604.2111530299999     
  0.22480827000000000        489.41071387000000        3587.9036875800002     
  0.22544180999999999        487.14277134000002        3571.6691774000001     
  0.22607536000000000        484.88509104000002        3555.5072978899998     
  0.22670889999999999        482.63762704999999        3539.4177259100002     
  0.22734245000000000        480.40033367000001        3523.4001397500001     
  0.22797598999999999        478.17316539000001        3507.4542191199998     
  0.22860954000000000        475.95607690999998        3491.5796451500000     
  0.22924307999999999        473.74902312000000        3475.7761004099998     
  0.22987663000000000        471.55195914000001        3460.0432688400001     
  0.23051016999999999        469.36484024999999        3444.3808358000001     
  0.23114371000000000        467.18762197000001        3428.7884880600000     
  0.23177726000000001        465.02025997999999        3413.2659137700002     
  0.23241080000000000        462.86271017000001        3397.8128024399998     
  0.23304435000000001        460.71492864999999        3382.4288449999999     
  0.23367789000000000        458.57687169000002        3367.1137337199998     
  0.23431144000000001        456.44849577999997        3351.8671622500001     
  0.23494498000000000        454.32975757999998        3336.6888255899999     
  0.23557853000000001        452.22061396999999        3321.5784201000001     
  0.23621207000000000        450.12102199999998        3306.5356434900000     
  0.23684562000000001        448.03093892999999        3291.5601947999999     
  0.23747915999999999        445.95032219000001        3276.6517744200000     
  0.23811270000000001        443.87912941000002        3261.8100840699999     
  0.23874624999999999        441.81731840999998        3247.0348267600002     
  0.23937979000000001        439.76484720000002        3232.3257068700000     
  0.24001333999999999        437.72167396999998        3217.6824300500002     
  0.24064688000000001        435.68775710000000        3203.1047032800002     
  0.24128042999999999        433.66305513999998        3188.5922348300001     
  0.24191397000000001        431.64752685000002        3174.1447342600000     
  0.24254751999999999        429.64113116999999        3159.7619124399998     
  0.24318106000000000        427.64382719999998        3145.4434815000000     
  0.24381459999999999        425.65557424000002        3131.1891548499998     
  0.24444815000000000        423.67633176999999        3116.9986471900002     
  0.24508168999999999        421.70605945000000        3102.8716744700000     
  0.24571524000000000        419.74471711000001        3088.8079539000000     
  0.24634877999999999        417.79226477999998        3074.8072039600002     
  0.24698233000000000        415.84866263999999        3060.8691443500002     
  0.24761586999999999        413.91387106000002        3046.9934960599999     
  0.24824942000000000        411.98785060000000        3033.1799812700001     
  0.24888295999999999        410.07056197999998        3019.4283234200002     
  0.24951651000000000        408.16196609999997        3005.7382471800001     
  0.25015005000000001        406.26202402000001        2992.1094784200000     
  0.25078359000000000        404.37069700000001        2978.5417442500002     
  0.25141713999999998        402.48794644999998        2965.0347729800001     
  0.25205068000000003        400.61373397000000        2951.5882941199998     
  0.25268423000000001        398.74802131000001        2938.2020384000002     
  0.25331777000000000        396.89077040000001        2924.8757377200000     
  0.25395131999999998        395.04194335000000        2911.6091251900002     
  0.25458486000000002        393.20150242000000        2898.4019350899998     
  0.25521841000000001        391.36941005000000        2885.2539029000000     
  0.25585194999999999        389.54562885000001        2872.1647652500001     
  0.25648549999999998        387.73012159000001        2859.1342599400000     
  0.25711904000000002        385.92285119000002        2846.1621259700000     
  0.25775258000000001        384.12378078000000        2833.2481034399998     
  0.25838612999999999        382.33287360000003        2820.3919336600002     
  0.25901966999999998        380.55009310000003        2807.5933590499999     
  0.25965322000000002        378.77540285999999        2794.8521231899999     
  0.26028676000000001        377.00876663999998        2782.1679708000001     
  0.26092030999999999        375.25014835000002        2769.5406477199999     
  0.26155384999999998        373.49951205999997        2756.9699009199999     
  0.26218740000000001        371.75682203000002        2744.4554785199998     
  0.26282094000000000        370.02204262999999        2731.9971297100001     
  0.26345447999999999        368.29513844000002        2719.5946048400001     
  0.26408802999999997        366.57607415000001        2707.2476553500001     
  0.26472157000000002        364.86481463000001        2694.9560337600001     
  0.26535512000000000        363.16132492000003        2682.7194937400000     
  0.26598865999999999        361.46557018999999        2670.5377899900000     
  0.26662221000000003        359.77751577999999        2658.4106783600000     
  0.26725575000000001        358.09712717999997        2646.3379157499999     
  0.26788930000000000        356.42437003999999        2634.3192601300002     
  0.26852283999999998        354.75921015000000        2622.3544705700001     
  0.26915639000000002        353.10161346000001        2610.4433072100001     
  0.26978993000000001        351.45154607000001        2598.5855312200001     
  0.27042347000000000        349.80897424000000        2586.7809048800000     
  0.27105701999999998        348.17386436999999        2575.0291914800000     
  0.27169056000000003        346.54618299999998        2563.3301553800002     
  0.27232411000000001        344.92589685000002        2551.6835620000002     
  0.27295765000000000        343.31297274999997        2540.0891777699999     
  0.27359119999999998        341.70737771000000        2528.5467701900002     
  0.27422474000000002        340.10907888000003        2517.0561077699999     
  0.27485829000000001        338.51804353000000        2505.6169600500002     
  0.27549182999999999        336.93423911999997        2494.2290975999999     
  0.27612537999999998        335.35763321000002        2482.8922920000000     
  0.27675892000000002        333.78819353000000        2471.6063158600000     
  0.27739246000000001        332.22588796000002        2460.3709427899998     
  0.27802600999999999        330.67068449999999        2449.1859473899999     
  0.27865954999999998        329.12255131000001        2438.0511052799998     
  0.27929310000000002        327.58145668999998        2426.9661930799998     
  0.27992664000000000        326.04736907000000        2415.9309883800001     
  0.28056018999999999        324.52025703999999        2404.9452697699999     
  0.28119372999999998        323.00008931000002        2394.0088168399998     
  0.28182728000000001        321.48683473000000        2383.1214101199998     
  0.28246082000000000        319.98046231000001        2372.2828311500002     
  0.28309435999999999        318.48094118000000        2361.4928624200002     
  0.28372791000000003        316.98824060999999        2350.7512873900000     
  0.28436145000000002        315.50233000999998        2340.0578904800000     
  0.28499500000000000        314.02317892999997        2329.4124570800000     
  0.28562853999999999        312.55075704000001        2318.8147735200000     
  0.28626209000000002        311.08503416999997        2308.2646270700002     
  0.28689563000000001        309.62598026000001        2297.7618059599999     
  0.28752918000000000        308.17356539000002        2287.3060993700001     
  0.28816271999999998        306.72775978999999        2276.8972973800001     
  0.28879627000000002        305.28853379999998        2266.5351910400000     
  0.28942981000000001        303.85585791000000        2256.2195723099999     
  0.29006335000000000        302.42970272999997        2245.9502340700001     
  0.29069689999999998        301.01003901000001        2235.7269701199998     
  0.29133044000000002        299.59683761999997        2225.5495751899998     
  0.29196399000000001        298.19006955999998        2215.4178449199999     
  0.29259752999999999        296.78970597000000        2205.3315758300000     
  0.29323107999999998        295.39571811000002        2195.2905653700000     
  0.29386462000000002        294.00807737999997        2185.2946118899999     
  0.29449817000000000        292.62675528000000        2175.3435146200000     
  0.29513170999999999        291.25172347000000        2165.4370736800001     
  0.29576525999999997        289.88295371999999        2155.5750901100000     
  0.29639880000000002        288.52041792000000        2145.7573657900002     
  0.29703234000000001        287.16408810000001        2135.9837035099999     
  0.29766588999999999        285.81393641000000        2126.2539069200002     
  0.29829942999999998        284.46993509999999        2116.5677805599998     
  0.29893298000000001        283.13205658999999        2106.9251297999999     
  0.29956652000000000        281.80027338999997        2097.3257609200000     
  0.30020006999999999        280.47455812999999        2087.7694810399998     
  0.30083360999999997        279.15488357999999        2078.2560981199999     
  0.30146716000000001        277.84122263000000        2068.7854210099999     
  0.30210070000000000        276.53354826999998        2059.3572593700001     
  0.30273423999999999        275.23183362999998        2049.9714237399999     
  0.30336779000000003        273.93605196999999        2040.6277254700001     
  0.30400133000000001        272.64617663000001        2031.3259767600000     
  0.30463488000000000        271.36218110999999        2022.0659906599999     
  0.30526841999999998        270.08403899000001        2012.8475810299999     
  0.30590197000000002        268.81172401999999        2003.6705625600000     
  0.30653551000000001        267.54521001000001        1994.5347507700001     
  0.30716905999999999        266.28447090999998        1985.4399619999999     
  0.30780259999999998        265.02948081000000        1976.3860133900000     
  0.30843615000000002        263.78021388000002        1967.3727229100000     
  0.30906969000000001        262.53664442000002        1958.3999093200000     
  0.30970323000000000        261.29874683999998        1949.4673922200000     
  0.31033677999999998        260.06649566999999        1940.5749919600000     
  0.31097032000000002        258.83986555000001        1931.7225297299999     
  0.31160387000000001        257.61883124000002        1922.9098275100000     
  0.31223740999999999        256.40336760999998        1914.1367080400000     
  0.31287095999999998        255.19344962000000        1905.4029948699999     
  0.31350450000000002        253.98905238000000        1896.7085123400000     
  0.31413805000000000        252.79015107000001        1888.0530855600000     
  0.31477158999999999        251.59672101999999        1879.4365404099999     
  0.31540513999999997        250.40873765000001        1870.8587035600001     
  0.31603868000000002        249.22617647999999        1862.3194024300001     
  0.31667222000000000        248.04901316999999        1853.8184652299999     
  0.31730576999999999        246.87722343999999        1845.3557209200001     
  0.31793930999999997        245.71078317999999        1836.9309992100000     
  0.31857286000000001        244.54966833000000        1828.5441305899999     
  0.31920640000000000        243.39385497000001        1820.1949462699999     
  0.31983994999999998        242.24331928000001        1811.8832782500001     
  0.32047349000000003        241.09803754000001        1803.6089592400001     
  0.32110704000000001        239.95798615000001        1795.3718227200000     
  0.32174058000000000        238.82314160000001        1787.1717028900000     
  0.32237411999999999        237.69348049000001        1779.0084347000000     
  0.32300767000000002        236.56897953000001        1770.8818538300000     
  0.32364121000000001        235.44961552000001        1762.7917966800001     
  0.32427476000000000        234.33536538000001        1754.7381003800001     
  0.32490829999999998        233.22620613000001        1746.7206028099999     
  0.32554185000000002        232.12211486999999        1738.7391425200001     
  0.32617539000000001        231.02306883000000        1730.7935588200000     
  0.32680893999999999        229.92904533999999        1722.8836917199999     
  0.32744247999999998        228.84002181000000        1715.0093819399999     
  0.32807603000000002        227.75597576000001        1707.1704709000001     
  0.32870957000000001        226.67688483000001        1699.3668007399999     
  0.32934310999999999        225.60272673000000        1691.5982142900000     
  0.32997665999999998        224.53347929000000        1683.8645550700001     
  0.33061020000000002        223.46912043000000        1676.1656673200000     
  0.33124375000000000        222.40962816000001        1668.5013959600001     
  0.33187728999999999        221.35498061000001        1660.8715865800000     
  0.33251083999999997        220.30515600000001        1653.2760854900000     
  0.33314438000000002        219.26013262000001        1645.7147396600001     
  0.33377793000000000        218.21988890000000        1638.1873967399999     
  0.33441146999999999        217.18440333999999        1630.6939050700000     
  0.33504502000000003        216.15365455000000        1623.2341136600000     
  0.33567856000000001        215.12762121000000        1615.8078721700001     
  0.33631210000000000        214.10628212000000        1608.4150309600000     
  0.33694564999999999        213.08961617000000        1601.0554410400000     
  0.33757918999999997        212.07760232999999        1593.7289540700001     
  0.33821274000000001        211.07021968999999        1586.4354223900000     