         100
        5000
        5000
           1
 table                                                       
           0
   2.0000000000000000E-002
