ITEM: TIMESTEP
1900
ITEM: NUMBER OF ATOMS
2850
ITEM: BOX BOUNDS ss ss pp
-28.0536 28.3253 
-28.9988 28.9984 
-0.5 0.5 
ITEM: ATOMS id type xs ys zs
1 1 0.012661 0.000000 0.500000 
2 1 0.022340 0.017073 0.500000 
3 1 0.032688 0.000597 0.500000 
4 1 0.042369 0.017677 0.500000 
5 1 0.052715 0.001202 0.500000 
6 1 0.062397 0.018289 0.500000 
7 1 0.072742 0.001814 0.500000 
8 1 0.082426 0.018911 0.500000 
9 1 0.092767 0.002433 0.500000 
10 1 0.102455 0.019539 0.500000 
11 1 0.112794 0.003060 0.500000 
12 1 0.122484 0.020177 0.500000 
13 1 0.132817 0.003697 0.500000 
14 1 0.142511 0.020822 0.500000 
15 1 0.152841 0.004338 0.500000 
16 1 0.162536 0.021475 0.500000 
17 1 0.172861 0.004988 0.500000 
18 1 0.182559 0.022136 0.500000 
19 1 0.192879 0.005643 0.500000 
20 1 0.202579 0.022803 0.500000 
21 1 0.212895 0.006305 0.500000 
22 1 0.222596 0.023475 0.500000 
23 1 0.232906 0.006973 0.500000 
24 1 0.242610 0.024155 0.500000 
25 1 0.252912 0.007645 0.500000 
26 1 0.262618 0.024839 0.500000 
27 1 0.272914 0.008319 0.500000 
28 1 0.282622 0.025527 0.500000 
29 1 0.292911 0.008997 0.500000 
30 1 0.302619 0.026217 0.500000 
31 1 0.312901 0.009676 0.500000 
32 1 0.322610 0.026908 0.500000 
33 1 0.332885 0.010356 0.500000 
34 1 0.342593 0.027600 0.500000 
35 1 0.352861 0.011033 0.500000 
36 1 0.362570 0.028289 0.500000 
37 1 0.372830 0.011707 0.500000 
38 1 0.382537 0.028974 0.500000 
39 1 0.392791 0.012376 0.500000 
40 1 0.402497 0.029655 0.500000 
41 1 0.412744 0.013039 0.500000 
42 1 0.422448 0.030326 0.500000 
43 1 0.432688 0.013694 0.500000 
44 1 0.442390 0.030989 0.500000 
45 1 0.452624 0.014337 0.500000 
46 1 0.462324 0.031639 0.500000 
47 1 0.472553 0.014968 0.500000 
48 1 0.482250 0.032276 0.500000 
49 1 0.492474 0.015584 0.500000 
50 1 0.502167 0.032896 0.500000 
51 1 0.512388 0.016184 0.500000 
52 1 0.522078 0.033498 0.500000 
53 1 0.532295 0.016766 0.500000 
54 1 0.541983 0.034081 0.500000 
55 1 0.552198 0.017330 0.500000 
56 1 0.561882 0.034643 0.500000 
57 1 0.572095 0.017873 0.500000 
58 1 0.581777 0.035184 0.500000 
59 1 0.591989 0.018396 0.500000 
60 1 0.601668 0.035702 0.500000 
61 1 0.611880 0.018896 0.500000 
62 1 0.621558 0.036195 0.500000 
63 1 0.631769 0.019373 0.500000 
64 1 0.641446 0.036666 0.500000 
65 1 0.651657 0.019829 0.500000 
66 1 0.661334 0.037110 0.500000 
67 1 0.671546 0.020261 0.500000 
68 1 0.681223 0.037533 0.500000 
69 1 0.691436 0.020670 0.500000 
70 1 0.701115 0.037931 0.500000 
71 1 0.711328 0.021058 0.500000 
72 1 0.721007 0.038307 0.500000 
73 1 0.731222 0.021423 0.500000 
74 1 0.740905 0.038660 0.500000 
75 1 0.751120 0.021768 0.500000 
76 1 0.760806 0.038993 0.500000 
77 1 0.771021 0.022094 0.500000 
78 1 0.780711 0.039305 0.500000 
79 1 0.790927 0.022399 0.500000 
80 1 0.800620 0.039597 0.500000 
81 1 0.810837 0.022687 0.500000 
82 1 0.820536 0.039873 0.500000 
83 1 0.830751 0.022958 0.500000 
84 1 0.840456 0.040130 0.500000 
85 1 0.850671 0.023211 0.500000 
86 1 0.860382 0.040369 0.500000 
87 1 0.870595 0.023449 0.500000 
88 1 0.880312 0.040595 0.500000 
89 1 0.890525 0.023674 0.500000 
90 1 0.900248 0.040807 0.500000 
91 1 0.910459 0.023884 0.500000 
92 1 0.920188 0.041005 0.500000 
93 1 0.930398 0.024080 0.500000 
94 1 0.940134 0.041192 0.500000 
95 1 0.950341 0.024267 0.500000 
96 1 0.960084 0.041368 0.500000 
97 1 0.970290 0.024443 0.500000 
98 1 0.980040 0.041531 0.500000 
99 1 0.990243 0.024606 0.500000 
100 1 1.000000 0.041686 0.500000 
101 1 0.011983 0.033545 0.500000 
102 1 0.021650 0.050615 0.500000 
103 1 0.032014 0.034148 0.500000 
104 1 0.041680 0.051227 0.500000 
105 1 0.052044 0.034760 0.500000 
106 1 0.061715 0.051847 0.500000 
107 1 0.072075 0.035381 0.500000 
108 1 0.081769 0.052485 0.500000 
109 1 0.092107 0.036012 0.500000 
110 1 0.101795 0.053141 0.500000 
111 1 0.112138 0.036650 0.500000 
112 1 0.121819 0.053777 0.500000 
113 1 0.132168 0.037297 0.500000 
114 1 0.141844 0.054435 0.500000 
115 1 0.152197 0.037952 0.500000 
116 1 0.161861 0.055109 0.500000 
117 1 0.172226 0.038617 0.500000 
118 1 0.181896 0.055789 0.500000 
119 1 0.192251 0.039288 0.500000 
120 1 0.201945 0.056486 0.500000 
121 1 0.212274 0.039967 0.500000 
122 1 0.221957 0.057195 0.500000 
123 1 0.232293 0.040654 0.500000 
124 1 0.241978 0.057872 0.500000 
125 1 0.252309 0.041345 0.500000 
126 1 0.262005 0.058577 0.500000 
127 1 0.272318 0.042042 0.500000 
128 1 0.282025 0.059278 0.500000 
129 1 0.292324 0.042743 0.500000 
130 1 0.302037 0.059991 0.500000 
131 1 0.312323 0.043447 0.500000 
132 1 0.322017 0.060676 0.500000 
133 1 0.332314 0.044150 0.500000 
134 1 0.341999 0.061399 0.500000 
135 1 0.352297 0.044856 0.500000 
136 1 0.361977 0.062147 0.500000 
137 1 0.372273 0.045557 0.500000 
138 1 0.381934 0.062875 0.500000 
139 1 0.392240 0.046254 0.500000 
140 1 0.401909 0.063534 0.500000 
141 1 0.412198 0.046944 0.500000 
142 1 0.421850 0.064275 0.500000 
143 1 0.432147 0.047626 0.500000 
144 1 0.441768 0.064954 0.500000 
145 1 0.452087 0.048297 0.500000 
146 1 0.461696 0.065591 0.500000 
147 1 0.472018 0.048954 0.500000 
148 1 0.481626 0.066247 0.500000 
149 1 0.491940 0.049595 0.500000 
150 1 0.501547 0.066897 0.500000 
151 1 0.511855 0.050220 0.500000 
152 1 0.521462 0.067499 0.500000 
153 1 0.531762 0.050823 0.500000 
154 1 0.541368 0.068129 0.500000 
155 1 0.551663 0.051406 0.500000 
156 1 0.561261 0.068688 0.500000 
157 1 0.571560 0.051966 0.500000 
158 1 0.581166 0.069228 0.500000 
159 1 0.591452 0.052503 0.500000 
160 1 0.601073 0.069772 0.500000 
161 1 0.611341 0.053013 0.500000 
162 1 0.620971 0.070274 0.500000 
163 1 0.631230 0.053499 0.500000 
164 1 0.640863 0.070766 0.500000 
165 1 0.651117 0.053960 0.500000 
166 1 0.660770 0.071239 0.500000 
167 1 0.671006 0.054396 0.500000 
168 1 0.680672 0.071654 0.500000 
169 1 0.690897 0.054806 0.500000 
170 1 0.700571 0.072035 0.500000 
171 1 0.710789 0.055192 0.500000 
172 1 0.720477 0.072408 0.500000 
173 1 0.730685 0.055554 0.500000 
174 1 0.740398 0.072770 0.500000 
175 1 0.750586 0.055894 0.500000 
176 1 0.760314 0.073079 0.500000 
177 1 0.770490 0.056213 0.500000 
178 1 0.780214 0.073403 0.500000 
179 1 0.790400 0.056511 0.500000 
180 1 0.800110 0.073693 0.500000 
181 1 0.810316 0.056789 0.500000 
182 1 0.820025 0.073970 0.500000 
183 1 0.830238 0.057049 0.500000 
184 1 0.839978 0.074201 0.500000 
185 1 0.850164 0.057294 0.500000 
186 1 0.859918 0.074420 0.500000 
187 1 0.870095 0.057522 0.500000 
188 1 0.879858 0.074637 0.500000 
189 1 0.890032 0.057734 0.500000 
190 1 0.899797 0.074848 0.500000 
191 1 0.909975 0.057934 0.500000 
192 1 0.919733 0.075057 0.500000 
193 1 0.929922 0.058120 0.500000 
194 1 0.939671 0.075214 0.500000 
195 1 0.949875 0.058294 0.500000 
196 1 0.959621 0.075390 0.500000 
197 1 0.969833 0.058458 0.500000 
198 1 0.979588 0.075542 0.500000 
199 1 0.989796 0.058613 0.500000 
200 1 0.999557 0.075685 0.500000 
201 1 0.011275 0.067077 0.500000 
202 1 0.020924 0.084144 0.500000 
203 1 0.031308 0.067688 0.500000 
204 1 0.040959 0.084763 0.500000 
205 1 0.051342 0.068307 0.500000 
206 1 0.060994 0.085390 0.500000 
207 1 0.071376 0.068936 0.500000 
208 1 0.081046 0.086044 0.500000 
209 1 0.091414 0.069605 0.500000 
210 1 0.101094 0.086732 0.500000 
211 1 0.111457 0.070270 0.500000 
212 1 0.121130 0.087417 0.500000 
213 1 0.131502 0.070930 0.500000 
214 1 0.141166 0.088094 0.500000 
215 1 0.151539 0.071607 0.500000 
216 1 0.161192 0.088779 0.500000 
217 1 0.171558 0.072279 0.500000 
218 1 0.181218 0.089444 0.500000 
219 1 0.191590 0.072965 0.500000 
220 1 0.201255 0.090158 0.500000 
221 1 0.211614 0.073693 0.500000 
222 1 0.221300 0.090856 0.500000 
223 1 0.231649 0.074385 0.500000 
224 1 0.241336 0.091573 0.500000 
225 1 0.251670 0.075092 0.500000 
226 1 0.261356 0.092293 0.500000 
227 1 0.271694 0.075784 0.500000 
228 1 0.281360 0.092975 0.500000 
229 1 0.291725 0.076492 0.500000 
230 1 0.301383 0.093723 0.500000 
231 1 0.311732 0.077220 0.500000 
232 1 0.321378 0.094488 0.500000 
233 1 0.331693 0.077932 0.500000 
234 1 0.341341 0.095229 0.500000 
235 1 0.351658 0.078673 0.500000 
236 1 0.361308 0.095955 0.500000 
237 1 0.371643 0.079449 0.500000 
238 1 0.381302 0.096711 0.500000 
239 1 0.391630 0.080139 0.500000 
240 1 0.401244 0.097474 0.500000 
241 1 0.411556 0.080857 0.500000 
242 1 0.421164 0.098183 0.500000 
243 1 0.431501 0.081599 0.500000 
244 1 0.441133 0.098878 0.500000 
245 1 0.451447 0.082253 0.500000 
246 1 0.461067 0.099566 0.500000 
247 1 0.471366 0.082890 0.500000 
248 1 0.480978 0.100232 0.500000 
249 1 0.491292 0.083575 0.500000 
250 1 0.500914 0.100912 0.500000 
251 1 0.511210 0.084225 0.500000 
252 1 0.520813 0.101585 0.500000 
253 1 0.531098 0.084848 0.500000 
254 1 0.540697 0.102178 0.500000 
255 1 0.551012 0.085449 0.500000 
256 1 0.560608 0.102735 0.500000 
257 1 0.570920 0.085985 0.500000 
258 1 0.580521 0.103301 0.500000 
259 1 0.590817 0.086525 0.500000 
260 1 0.600438 0.103824 0.500000 
261 1 0.610733 0.087045 0.500000 
262 1 0.620328 0.104359 0.500000 
263 1 0.630625 0.087570 0.500000 
264 1 0.640234 0.104855 0.500000 
265 1 0.650524 0.088050 0.500000 
266 1 0.660147 0.105321 0.500000 
267 1 0.670435 0.088486 0.500000 
268 1 0.680068 0.105740 0.500000 
269 1 0.690345 0.088887 0.500000 
270 1 0.699992 0.106133 0.500000 
271 1 0.710253 0.089277 0.500000 
272 1 0.719914 0.106505 0.500000 
273 1 0.730174 0.089637 0.500000 
274 1 0.739851 0.106827 0.500000 
275 1 0.750105 0.089963 0.500000 
276 1 0.759784 0.107148 0.500000 
277 1 0.770016 0.090269 0.500000 
278 1 0.779699 0.107463 0.500000 
279 1 0.789930 0.090590 0.500000 
280 1 0.799623 0.107788 0.500000 
281 1 0.809828 0.090891 0.500000 
282 1 0.819555 0.108042 0.500000 
283 1 0.829755 0.091105 0.500000 
284 1 0.839472 0.108265 0.500000 
285 1 0.849679 0.091342 0.500000 
286 1 0.859404 0.108481 0.500000 
287 1 0.869606 0.091558 0.500000 
288 1 0.879338 0.108704 0.500000 
289 1 0.889548 0.091776 0.500000 
290 1 0.899282 0.108905 0.500000 
291 1 0.909494 0.091972 0.500000 
292 1 0.919237 0.109078 0.500000 
293 1 0.929453 0.092154 0.500000 
294 1 0.939204 0.109263 0.500000 
295 1 0.949407 0.092323 0.500000 
296 1 0.959160 0.109410 0.500000 
297 1 0.969375 0.092475 0.500000 
298 1 0.979136 0.109550 0.500000 
299 1 0.989349 0.092617 0.500000 
300 1 0.999117 0.109681 0.500000 
301 1 0.010532 0.100598 0.500000 
302 1 0.020165 0.117663 0.500000 
303 1 0.030566 0.101214 0.500000 
304 1 0.040201 0.118287 0.500000 
305 1 0.050602 0.101839 0.500000 
306 1 0.060239 0.118920 0.500000 
307 1 0.070640 0.102476 0.500000 
308 1 0.080299 0.119601 0.500000 
309 1 0.090687 0.103162 0.500000 
310 1 0.100341 0.120295 0.500000 
311 1 0.110733 0.103867 0.500000 
312 1 0.120393 0.120999 0.500000 
313 1 0.130771 0.104560 0.500000 
314 1 0.140450 0.121689 0.500000 
315 1 0.150812 0.105240 0.500000 
316 1 0.160469 0.122381 0.500000 
317 1 0.170868 0.105935 0.500000 
318 1 0.180498 0.123114 0.500000 
319 1 0.190903 0.106642 0.500000 
320 1 0.200574 0.123813 0.500000 
321 1 0.210939 0.107333 0.500000 
322 1 0.220624 0.124522 0.500000 
323 1 0.230977 0.108035 0.500000 
324 1 0.240653 0.125241 0.500000 
325 1 0.251014 0.108762 0.500000 
326 1 0.260686 0.125968 0.500000 
327 1 0.271032 0.109490 0.500000 
328 1 0.280688 0.126730 0.500000 
329 1 0.291017 0.110218 0.500000 
330 1 0.300681 0.127482 0.500000 
331 1 0.311020 0.110993 0.500000 
332 1 0.320668 0.128271 0.500000 
333 1 0.331014 0.111786 0.500000 
334 1 0.340677 0.129057 0.500000 
335 1 0.350993 0.112529 0.500000 
336 1 0.360654 0.129836 0.500000 
337 1 0.370939 0.113250 0.500000 
338 1 0.380577 0.130600 0.500000 
339 1 0.390882 0.114044 0.500000 
340 1 0.400530 0.131358 0.500000 
341 1 0.410849 0.114798 0.500000 
342 1 0.420485 0.132099 0.500000 
343 1 0.430803 0.115485 0.500000 
344 1 0.440402 0.132877 0.500000 
345 1 0.450732 0.116230 0.500000 
346 1 0.460347 0.133576 0.500000 
347 1 0.470660 0.116919 0.500000 
348 1 0.480294 0.134269 0.500000 
349 1 0.490588 0.117587 0.500000 
350 1 0.500200 0.135004 0.500000 
351 1 0.510493 0.118290 0.500000 
352 1 0.520123 0.135658 0.500000 
353 1 0.530406 0.118917 0.500000 
354 1 0.540036 0.136268 0.500000 
355 1 0.550315 0.119503 0.500000 
356 1 0.559958 0.136855 0.500000 
357 1 0.570205 0.120070 0.500000 
358 1 0.579863 0.137411 0.500000 
359 1 0.590118 0.120607 0.500000 
360 1 0.599756 0.137952 0.500000 
361 1 0.610034 0.121159 0.500000 
362 1 0.619676 0.138476 0.500000 
363 1 0.629961 0.121670 0.500000 
364 1 0.639607 0.138975 0.500000 
365 1 0.649887 0.122148 0.500000 
366 1 0.659538 0.139426 0.500000 
367 1 0.669815 0.122583 0.500000 
368 1 0.679465 0.139812 0.500000 
369 1 0.689752 0.122979 0.500000 
370 1 0.699393 0.140218 0.500000 
371 1 0.709664 0.123362 0.500000 
372 1 0.719331 0.140596 0.500000 
373 1 0.729578 0.123704 0.500000 
374 1 0.739259 0.140929 0.500000 
375 1 0.749506 0.124028 0.500000 
376 1 0.759178 0.141250 0.500000 
377 1 0.769450 0.124364 0.500000 
378 1 0.779118 0.141576 0.500000 
379 1 0.789374 0.124668 0.500000 
380 1 0.799059 0.141839 0.500000 
381 1 0.809308 0.124947 0.500000 
382 1 0.819006 0.142102 0.500000 
383 1 0.829258 0.125193 0.500000 
384 1 0.838955 0.142333 0.500000 
385 1 0.849218 0.125399 0.500000 
386 1 0.858902 0.142551 0.500000 
387 1 0.869160 0.125621 0.500000 
388 1 0.878857 0.142758 0.500000 
389 1 0.889098 0.125841 0.500000 
390 1 0.898811 0.142970 0.500000 
391 1 0.909029 0.126034 0.500000 
392 1 0.918763 0.143143 0.500000 
393 1 0.928968 0.126185 0.500000 
394 1 0.938705 0.143287 0.500000 
395 1 0.948940 0.126349 0.500000 
396 1 0.958701 0.143428 0.500000 
397 1 0.968919 0.126487 0.500000 
398 1 0.978689 0.143555 0.500000 
399 1 0.988905 0.126616 0.500000 
400 1 0.998682 0.143674 0.500000 
401 1 0.009754 0.134110 0.500000 
402 1 0.019367 0.151171 0.500000 
403 1 0.029790 0.134729 0.500000 
404 1 0.039403 0.151799 0.500000 
405 1 0.049825 0.135360 0.500000 
406 1 0.059442 0.152437 0.500000 
407 1 0.069865 0.136003 0.500000 
408 1 0.079496 0.153129 0.500000 
409 1 0.089932 0.136728 0.500000 
410 1 0.099580 0.153843 0.500000 
411 1 0.109995 0.137426 0.500000 
412 1 0.119642 0.154552 0.500000 
413 1 0.130055 0.138128 0.500000 
414 1 0.139688 0.155260 0.500000 
415 1 0.150089 0.138825 0.500000 
416 1 0.159710 0.155954 0.500000 
417 1 0.170103 0.139542 0.500000 
418 1 0.179740 0.156672 0.500000 
419 1 0.190165 0.140250 0.500000 
420 1 0.199783 0.157381 0.500000 
421 1 0.210226 0.140970 0.500000 
422 1 0.219840 0.158138 0.500000 
423 1 0.230259 0.141725 0.500000 
424 1 0.239897 0.158909 0.500000 
425 1 0.250295 0.142450 0.500000 
426 1 0.259943 0.159673 0.500000 
427 1 0.270322 0.143207 0.500000 
428 1 0.279968 0.160439 0.500000 
429 1 0.290351 0.143971 0.500000 
430 1 0.299989 0.161220 0.500000 
431 1 0.310363 0.144750 0.500000 
432 1 0.319982 0.162050 0.500000 
433 1 0.330331 0.145532 0.500000 
434 1 0.339952 0.162845 0.500000 
435 1 0.350294 0.146341 0.500000 
436 1 0.359919 0.163660 0.500000 
437 1 0.370266 0.147146 0.500000 
438 1 0.379892 0.164475 0.500000 
439 1 0.390225 0.147924 0.500000 
440 1 0.399852 0.165285 0.500000 
441 1 0.410166 0.148702 0.500000 
442 1 0.419784 0.166091 0.500000 
443 1 0.430078 0.149493 0.500000 
444 1 0.439736 0.166845 0.500000 
445 1 0.450032 0.150221 0.500000 
446 1 0.459652 0.167610 0.500000 
447 1 0.469965 0.150928 0.500000 
448 1 0.479551 0.168354 0.500000 
449 1 0.489879 0.151678 0.500000 
450 1 0.499485 0.169026 0.500000 
451 1 0.509813 0.152357 0.500000 
452 1 0.519394 0.169732 0.500000 
453 1 0.529721 0.153021 0.500000 
454 1 0.539317 0.170368 0.500000 
455 1 0.549628 0.153614 0.500000 
456 1 0.559238 0.170983 0.500000 
457 1 0.569538 0.154197 0.500000 
458 1 0.579155 0.171559 0.500000 
459 1 0.589454 0.154769 0.500000 
460 1 0.599078 0.172114 0.500000 
461 1 0.609360 0.155292 0.500000 
462 1 0.618988 0.172635 0.500000 
463 1 0.629265 0.155795 0.500000 
464 1 0.638916 0.173098 0.500000 
465 1 0.649199 0.156250 0.500000 
466 1 0.658851 0.173523 0.500000 
467 1 0.669149 0.156670 0.500000 
468 1 0.678813 0.173919 0.500000 
469 1 0.689094 0.157062 0.500000 
470 1 0.698779 0.174301 0.500000 
471 1 0.709058 0.157448 0.500000 
472 1 0.718727 0.174690 0.500000 
473 1 0.729020 0.157836 0.500000 
474 1 0.738678 0.175054 0.500000 
475 1 0.748946 0.158162 0.500000 
476 1 0.758624 0.175341 0.500000 
477 1 0.768882 0.158453 0.500000 
478 1 0.778562 0.175641 0.500000 
479 1 0.788826 0.158750 0.500000 
480 1 0.798519 0.175922 0.500000 
481 1 0.808774 0.159002 0.500000 
482 1 0.818470 0.176170 0.500000 
483 1 0.828744 0.159259 0.500000 
484 1 0.838438 0.176419 0.500000 
485 1 0.848700 0.159498 0.500000 
486 1 0.858417 0.176643 0.500000 
487 1 0.868650 0.159697 0.500000 
488 1 0.878371 0.176836 0.500000 
489 1 0.888593 0.159897 0.500000 
490 1 0.898331 0.177015 0.500000 
491 1 0.908551 0.160084 0.500000 
492 1 0.918318 0.177190 0.500000 
493 1 0.928512 0.160249 0.500000 
494 1 0.938288 0.177325 0.500000 
495 1 0.948477 0.160370 0.500000 
496 1 0.958249 0.177440 0.500000 
497 1 0.968470 0.160496 0.500000 
498 1 0.978251 0.177553 0.500000 
499 1 0.988467 0.160611 0.500000 
500 1 0.998258 0.177659 0.500000 
501 1 0.008938 0.167610 0.500000 
502 1 0.018532 0.184668 0.500000 
503 1 0.028972 0.168234 0.500000 
504 1 0.038566 0.185299 0.500000 
505 1 0.049008 0.168868 0.500000 
506 1 0.058602 0.185942 0.500000 
507 1 0.069047 0.169517 0.500000 
508 1 0.078648 0.186623 0.500000 
509 1 0.089117 0.170240 0.500000 
510 1 0.098706 0.187349 0.500000 
511 1 0.109178 0.170962 0.500000 
512 1 0.118766 0.188074 0.500000 
513 1 0.129227 0.171662 0.500000 
514 1 0.138811 0.188796 0.500000 
515 1 0.149279 0.172381 0.500000 
516 1 0.158887 0.189504 0.500000 
517 1 0.169328 0.173083 0.500000 
518 1 0.178951 0.190228 0.500000 
519 1 0.189379 0.173816 0.500000 
520 1 0.199003 0.190980 0.500000 
521 1 0.209417 0.174536 0.500000 
522 1 0.219041 0.191733 0.500000 
523 1 0.229475 0.175320 0.500000 
524 1 0.239097 0.192513 0.500000 
525 1 0.249533 0.176100 0.500000 
526 1 0.259147 0.193312 0.500000 
527 1 0.269562 0.176894 0.500000 
528 1 0.279167 0.194155 0.500000 
529 1 0.289562 0.177692 0.500000 
530 1 0.299180 0.195004 0.500000 
531 1 0.309566 0.178531 0.500000 
532 1 0.319198 0.195854 0.500000 
533 1 0.329601 0.179376 0.500000 
534 1 0.339209 0.196725 0.500000 
535 1 0.349598 0.180206 0.500000 
536 1 0.359187 0.197571 0.500000 
537 1 0.369567 0.181018 0.500000 
538 1 0.379137 0.198400 0.500000 
539 1 0.389515 0.181836 0.500000 
540 1 0.399105 0.199202 0.500000 
541 1 0.409464 0.182659 0.500000 
542 1 0.419077 0.200013 0.500000 
543 1 0.429417 0.183432 0.500000 
544 1 0.438983 0.200893 0.500000 
545 1 0.449337 0.184274 0.500000 
546 1 0.458904 0.201715 0.500000 
547 1 0.469244 0.185055 0.500000 
548 1 0.478837 0.202454 0.500000 
549 1 0.489175 0.185744 0.500000 
550 1 0.498741 0.203188 0.500000 
551 1 0.509081 0.186469 0.500000 
552 1 0.518688 0.203872 0.500000 
553 1 0.529006 0.187120 0.500000 
554 1 0.538610 0.204522 0.500000 
555 1 0.548938 0.187760 0.500000 
556 1 0.558547 0.205142 0.500000 
557 1 0.568871 0.188352 0.500000 
558 1 0.578473 0.205736 0.500000 
559 1 0.588793 0.188922 0.500000 
560 1 0.598390 0.206299 0.500000 
561 1 0.608715 0.189483 0.500000 
562 1 0.618334 0.206799 0.500000 
563 1 0.628657 0.189949 0.500000 
564 1 0.638281 0.207255 0.500000 
565 1 0.648593 0.190394 0.500000 
566 1 0.658239 0.207659 0.500000 
567 1 0.668531 0.190783 0.500000 
568 1 0.678186 0.208051 0.500000 
569 1 0.688482 0.191164 0.500000 
570 1 0.698131 0.208436 0.500000 
571 1 0.708431 0.191552 0.500000 
572 1 0.718073 0.208813 0.500000 
573 1 0.728381 0.191923 0.500000 
574 1 0.738040 0.209148 0.500000 
575 1 0.748351 0.192244 0.500000 
576 1 0.758011 0.209479 0.500000 
577 1 0.768294 0.192541 0.500000 
578 1 0.777976 0.209735 0.500000 
579 1 0.788236 0.192823 0.500000 
580 1 0.797944 0.210007 0.500000 
581 1 0.808187 0.193110 0.500000 
582 1 0.817933 0.210252 0.500000 
583 1 0.828150 0.193329 0.500000 
584 1 0.837902 0.210480 0.500000 
585 1 0.848119 0.193555 0.500000 
586 1 0.857875 0.210666 0.500000 
587 1 0.868122 0.193761 0.500000 
588 1 0.877836 0.210880 0.500000 
589 1 0.888103 0.193956 0.500000 
590 1 0.897839 0.211044 0.500000 
591 1 0.908068 0.194118 0.500000 
592 1 0.917817 0.211217 0.500000 
593 1 0.928033 0.194283 0.500000 
594 1 0.937802 0.211332 0.500000 
595 1 0.948021 0.194385 0.500000 
596 1 0.957807 0.211443 0.500000 
597 1 0.968031 0.194496 0.500000 
598 1 0.977825 0.211543 0.500000 
599 1 0.988043 0.194599 0.500000 
600 1 0.997847 0.211634 0.500000 
601 1 0.008083 0.201103 0.500000 
602 1 0.017654 0.218157 0.500000 
603 1 0.028113 0.201727 0.500000 
604 1 0.037684 0.218790 0.500000 
605 1 0.048147 0.202367 0.500000 
606 1 0.057718 0.219436 0.500000 
607 1 0.068185 0.203017 0.500000 
608 1 0.077750 0.220120 0.500000 
609 1 0.088244 0.203732 0.500000 
610 1 0.097813 0.220854 0.500000 
611 1 0.108310 0.204472 0.500000 
612 1 0.117906 0.221601 0.500000 
613 1 0.128378 0.205210 0.500000 
614 1 0.137997 0.222322 0.500000 
615 1 0.148459 0.205928 0.500000 
616 1 0.158071 0.223064 0.500000 
617 1 0.168515 0.206648 0.500000 
618 1 0.178124 0.223795 0.500000 
619 1 0.188554 0.207383 0.500000 
620 1 0.198169 0.224551 0.500000 
621 1 0.208609 0.208161 0.500000 
622 1 0.218219 0.225358 0.500000 
623 1 0.228665 0.208944 0.500000 
624 1 0.238283 0.226160 0.500000 
625 1 0.248712 0.209728 0.500000 
626 1 0.258326 0.226995 0.500000 
627 1 0.268748 0.210580 0.500000 
628 1 0.278378 0.227855 0.500000 
629 1 0.288795 0.211442 0.500000 
630 1 0.298413 0.228747 0.500000 
631 1 0.308823 0.212321 0.500000 
632 1 0.318415 0.229689 0.500000 
633 1 0.328811 0.213212 0.500000 
634 1 0.338409 0.230573 0.500000 
635 1 0.348790 0.214085 0.500000 
636 1 0.358397 0.231458 0.500000 
637 1 0.368764 0.214956 0.500000 
638 1 0.378377 0.232321 0.500000 
639 1 0.388740 0.215772 0.500000 
640 1 0.398344 0.233174 0.500000 
641 1 0.408701 0.216586 0.500000 
642 1 0.418252 0.234105 0.500000 
643 1 0.428608 0.217502 0.500000 
644 1 0.438202 0.234960 0.500000 
645 1 0.448545 0.218333 0.500000 
646 1 0.458146 0.235777 0.500000 
647 1 0.468493 0.219117 0.500000 
648 1 0.478073 0.236599 0.500000 
649 1 0.488414 0.219897 0.500000 
650 1 0.498031 0.237308 0.500000 
651 1 0.508352 0.220577 0.500000 
652 1 0.517951 0.238038 0.500000 
653 1 0.528282 0.221282 0.500000 
654 1 0.537884 0.238695 0.500000 
655 1 0.548224 0.221907 0.500000 
656 1 0.557805 0.239325 0.500000 
657 1 0.568156 0.222521 0.500000 
658 1 0.577748 0.239912 0.500000 
659 1 0.588091 0.223109 0.500000 
660 1 0.597696 0.240473 0.500000 
661 1 0.608019 0.223627 0.500000 
662 1 0.617631 0.240968 0.500000 
663 1 0.627958 0.224117 0.500000 
664 1 0.637594 0.241423 0.500000 
665 1 0.647915 0.224548 0.500000 
666 1 0.657553 0.241847 0.500000 
667 1 0.667864 0.224951 0.500000 
668 1 0.677517 0.242228 0.500000 
669 1 0.687829 0.225337 0.500000 
670 1 0.697485 0.242614 0.500000 
671 1 0.707776 0.225718 0.500000 
672 1 0.717473 0.242966 0.500000 
673 1 0.727738 0.226058 0.500000 
674 1 0.737452 0.243293 0.500000 
675 1 0.747705 0.226382 0.500000 
676 1 0.757424 0.243580 0.500000 
677 1 0.767689 0.226672 0.500000 
678 1 0.777407 0.243858 0.500000 
679 1 0.787656 0.226918 0.500000 
680 1 0.797376 0.244075 0.500000 
681 1 0.807648 0.227151 0.500000 
682 1 0.817356 0.244311 0.500000 
683 1 0.827624 0.227401 0.500000 
684 1 0.837350 0.244525 0.500000 
685 1 0.847613 0.227606 0.500000 
686 1 0.857345 0.244741 0.500000 
687 1 0.867590 0.227813 0.500000 
688 1 0.877350 0.244900 0.500000 
689 1 0.887592 0.227963 0.500000 
690 1 0.897345 0.245070 0.500000 
691 1 0.907576 0.228131 0.500000 
692 1 0.917333 0.245197 0.500000 
693 1 0.927585 0.228259 0.500000 
694 1 0.937342 0.245310 0.500000 
695 1 0.947580 0.228392 0.500000 
696 1 0.957383 0.245436 0.500000 
697 1 0.967605 0.228489 0.500000 
698 1 0.977417 0.245522 0.500000 
699 1 0.987634 0.228577 0.500000 
700 1 0.997455 0.245600 0.500000 
701 1 0.007189 0.234587 0.500000 
702 1 0.016737 0.251640 0.500000 
703 1 0.027214 0.235215 0.500000 
704 1 0.036760 0.252274 0.500000 
705 1 0.047243 0.235854 0.500000 
706 1 0.056787 0.252921 0.500000 
707 1 0.067275 0.236508 0.500000 
708 1 0.076848 0.253623 0.500000 
709 1 0.087336 0.237241 0.500000 
710 1 0.096901 0.254351 0.500000 
711 1 0.107408 0.237976 0.500000 
712 1 0.116975 0.255092 0.500000 
713 1 0.127488 0.238713 0.500000 
714 1 0.137053 0.255833 0.500000 
715 1 0.147559 0.239448 0.500000 
716 1 0.157122 0.256577 0.500000 
717 1 0.167631 0.240191 0.500000 
718 1 0.177208 0.257320 0.500000 
719 1 0.187707 0.240938 0.500000 
720 1 0.197285 0.258122 0.500000 
721 1 0.207764 0.241746 0.500000 
722 1 0.217368 0.258937 0.500000 
723 1 0.227836 0.242561 0.500000 
724 1 0.237448 0.259781 0.500000 
725 1 0.247895 0.243406 0.500000 
726 1 0.257501 0.260663 0.500000 
727 1 0.267942 0.244262 0.500000 
728 1 0.277551 0.261556 0.500000 
729 1 0.287979 0.245162 0.500000 
730 1 0.297575 0.262525 0.500000 
731 1 0.307982 0.246111 0.500000 
732 1 0.317598 0.263464 0.500000 
733 1 0.328012 0.247035 0.500000 
734 1 0.337615 0.264418 0.500000 
735 1 0.348012 0.247941 0.500000 
736 1 0.357607 0.265354 0.500000 
737 1 0.367998 0.248836 0.500000 
738 1 0.377588 0.266264 0.500000 
739 1 0.387979 0.249732 0.500000 
740 1 0.397552 0.267232 0.500000 
741 1 0.407904 0.250687 0.500000 
742 1 0.417511 0.268125 0.500000 
743 1 0.427854 0.251550 0.500000 
744 1 0.437443 0.269031 0.500000 
745 1 0.447800 0.252419 0.500000 
746 1 0.457367 0.269930 0.500000 
747 1 0.467732 0.253288 0.500000 
748 1 0.477336 0.270725 0.500000 
749 1 0.487692 0.254032 0.500000 
750 1 0.497267 0.271540 0.500000 
751 1 0.507596 0.254788 0.500000 
752 1 0.517190 0.272248 0.500000 
753 1 0.527522 0.255472 0.500000 
754 1 0.537102 0.272949 0.500000 
755 1 0.547457 0.256161 0.500000 
756 1 0.557047 0.273601 0.500000 
757 1 0.567390 0.256740 0.500000 
758 1 0.576987 0.274151 0.500000 
759 1 0.587333 0.257293 0.500000 
760 1 0.596950 0.274643 0.500000 
761 1 0.607295 0.257818 0.500000 
762 1 0.616928 0.275125 0.500000 
763 1 0.627263 0.258284 0.500000 
764 1 0.636909 0.275591 0.500000 
765 1 0.647225 0.258727 0.500000 
766 1 0.656901 0.276000 0.500000 
767 1 0.667192 0.259111 0.500000 
768 1 0.676880 0.276401 0.500000 
769 1 0.687154 0.259505 0.500000 
770 1 0.696876 0.276765 0.500000 
771 1 0.707134 0.259851 0.500000 
772 1 0.716862 0.277100 0.500000 
773 1 0.727138 0.260189 0.500000 
774 1 0.736857 0.277405 0.500000 
775 1 0.747149 0.260501 0.500000 
776 1 0.756856 0.277692 0.500000 
777 1 0.767145 0.260763 0.500000 
778 1 0.776839 0.277943 0.500000 
779 1 0.787141 0.261018 0.500000 
780 1 0.796833 0.278159 0.500000 
781 1 0.807131 0.261220 0.500000 
782 1 0.816827 0.278360 0.500000 
783 1 0.827127 0.261445 0.500000 
784 1 0.836836 0.278588 0.500000 
785 1 0.847120 0.261664 0.500000 
786 1 0.856855 0.278793 0.500000 
787 1 0.867111 0.261849 0.500000 
788 1 0.876867 0.278952 0.500000 
789 1 0.887113 0.262012 0.500000 
790 1 0.896888 0.279095 0.500000 
791 1 0.907130 0.262136 0.500000 
792 1 0.916906 0.279186 0.500000 
793 1 0.927150 0.262271 0.500000 
794 1 0.936943 0.279340 0.500000 
795 1 0.947159 0.262387 0.500000 
796 1 0.956982 0.279417 0.500000 
797 1 0.967200 0.262468 0.500000 
798 1 0.977036 0.279488 0.500000 
799 1 0.987245 0.262544 0.500000 
800 1 0.997089 0.279555 0.500000 
801 1 0.006256 0.268068 0.500000 
802 1 0.015779 0.285121 0.500000 
803 1 0.026272 0.268696 0.500000 
804 1 0.035792 0.285753 0.500000 
805 1 0.046292 0.269335 0.500000 
806 1 0.055810 0.286400 0.500000 
807 1 0.066319 0.269991 0.500000 
808 1 0.075859 0.287104 0.500000 
809 1 0.086374 0.270727 0.500000 
810 1 0.095923 0.287816 0.500000 
811 1 0.106439 0.271442 0.500000 
812 1 0.115987 0.288536 0.500000 
813 1 0.126524 0.272187 0.500000 
814 1 0.136054 0.289290 0.500000 
815 1 0.146605 0.272951 0.500000 
816 1 0.156147 0.290058 0.500000 
817 1 0.166678 0.273692 0.500000 
818 1 0.176232 0.290825 0.500000 
819 1 0.186778 0.274486 0.500000 
820 1 0.196334 0.291655 0.500000 
821 1 0.206884 0.275310 0.500000 
822 1 0.216434 0.292491 0.500000 
823 1 0.226973 0.276141 0.500000 
824 1 0.236506 0.293393 0.500000 
825 1 0.247032 0.277034 0.500000 
826 1 0.256561 0.294293 0.500000 
827 1 0.267098 0.277931 0.500000 
828 1 0.276609 0.295235 0.500000 
829 1 0.287134 0.278908 0.500000 
830 1 0.296677 0.296223 0.500000 
831 1 0.307165 0.279872 0.500000 
832 1 0.316711 0.297229 0.500000 
833 1 0.327184 0.280844 0.500000 
834 1 0.336719 0.298243 0.500000 
835 1 0.347194 0.281846 0.500000 
836 1 0.356762 0.299233 0.500000 
837 1 0.367199 0.282788 0.500000 
838 1 0.376771 0.300244 0.500000 
839 1 0.387184 0.283758 0.500000 
840 1 0.396757 0.301240 0.500000 
841 1 0.407162 0.284701 0.500000 
842 1 0.416700 0.302253 0.500000 
843 1 0.427106 0.285654 0.500000 
844 1 0.436654 0.303207 0.500000 
845 1 0.447044 0.286577 0.500000 
846 1 0.456629 0.304113 0.500000 
847 1 0.466994 0.287422 0.500000 
848 1 0.476546 0.305031 0.500000 
849 1 0.486906 0.288283 0.500000 
850 1 0.496488 0.305821 0.500000 
851 1 0.506844 0.289037 0.500000 
852 1 0.516398 0.306595 0.500000 
853 1 0.526754 0.289765 0.500000 
854 1 0.536356 0.307253 0.500000 
855 1 0.546698 0.290425 0.500000 
856 1 0.556322 0.307875 0.500000 
857 1 0.566660 0.291020 0.500000 
858 1 0.576298 0.308417 0.500000 
859 1 0.586624 0.291515 0.500000 
860 1 0.596263 0.308878 0.500000 
861 1 0.606594 0.291997 0.500000 
862 1 0.616252 0.309327 0.500000 
863 1 0.626578 0.292457 0.500000 
864 1 0.636257 0.309783 0.500000 
865 1 0.646574 0.292873 0.500000 
866 1 0.656250 0.310177 0.500000 
867 1 0.666567 0.293291 0.500000 
868 1 0.676231 0.310585 0.500000 
869 1 0.686563 0.293674 0.500000 
870 1 0.696231 0.310913 0.500000 
871 1 0.706574 0.294014 0.500000 
872 1 0.716234 0.311252 0.500000 
873 1 0.726575 0.294329 0.500000 
874 1 0.736231 0.311560 0.500000 
875 1 0.746559 0.294623 0.500000 
876 1 0.756235 0.311832 0.500000 
877 1 0.766544 0.294884 0.500000 
878 1 0.776262 0.312062 0.500000 
879 1 0.786535 0.295103 0.500000 
880 1 0.796264 0.312267 0.500000 
881 1 0.806535 0.295313 0.500000 