ITEM: TIMESTEP
3100
ITEM: NUMBER OF ATOMS
2850
ITEM: BOX BOUNDS ss ss pp
-28.0536 28.3253 
-28.9988 28.9984 
-0.5 0.5 
ITEM: ATOMS id type xs ys zs
1 1 0.012661 0.000000 0.500000 
2 1 0.022340 0.017073 0.500000 
3 1 0.032688 0.000597 0.500000 
4 1 0.042369 0.017677 0.500000 
5 1 0.052715 0.001202 0.500000 
6 1 0.062397 0.018289 0.500000 
7 1 0.072742 0.001814 0.500000 
8 1 0.082426 0.018911 0.500000 
9 1 0.092767 0.002433 0.500000 
10 1 0.102455 0.019539 0.500000 
11 1 0.112794 0.003060 0.500000 
12 1 0.122484 0.020177 0.500000 
13 1 0.132817 0.003697 0.500000 
14 1 0.142511 0.020822 0.500000 
15 1 0.152841 0.004338 0.500000 
16 1 0.162536 0.021475 0.500000 
17 1 0.172861 0.004988 0.500000 
18 1 0.182559 0.022136 0.500000 
19 1 0.192879 0.005643 0.500000 
20 1 0.202579 0.022803 0.500000 
21 1 0.212895 0.006305 0.500000 
22 1 0.222596 0.023475 0.500000 
23 1 0.232906 0.006973 0.500000 
24 1 0.242610 0.024155 0.500000 
25 1 0.252912 0.007645 0.500000 
26 1 0.262618 0.024839 0.500000 
27 1 0.272914 0.008319 0.500000 
28 1 0.282622 0.025527 0.500000 
29 1 0.292911 0.008997 0.500000 
30 1 0.302619 0.026217 0.500000 
31 1 0.312901 0.009676 0.500000 
32 1 0.322610 0.026908 0.500000 
33 1 0.332885 0.010356 0.500000 
34 1 0.342593 0.027600 0.500000 
35 1 0.352861 0.011033 0.500000 
36 1 0.362570 0.028289 0.500000 
37 1 0.372830 0.011707 0.500000 
38 1 0.382537 0.028974 0.500000 
39 1 0.392791 0.012376 0.500000 
40 1 0.402497 0.029655 0.500000 
41 1 0.412744 0.013039 0.500000 
42 1 0.422448 0.030326 0.500000 
43 1 0.432688 0.013694 0.500000 
44 1 0.442390 0.030989 0.500000 
45 1 0.452624 0.014337 0.500000 
46 1 0.462324 0.031639 0.500000 
47 1 0.472553 0.014968 0.500000 
48 1 0.482250 0.032276 0.500000 
49 1 0.492474 0.015584 0.500000 
50 1 0.502167 0.032896 0.500000 
51 1 0.512388 0.016184 0.500000 
52 1 0.522078 0.033498 0.500000 
53 1 0.532295 0.016766 0.500000 
54 1 0.541983 0.034081 0.500000 
55 1 0.552198 0.017330 0.500000 
56 1 0.561882 0.034643 0.500000 
57 1 0.572095 0.017873 0.500000 
58 1 0.581777 0.035184 0.500000 
59 1 0.591989 0.018396 0.500000 
60 1 0.601668 0.035702 0.500000 
61 1 0.611880 0.018896 0.500000 
62 1 0.621558 0.036195 0.500000 
63 1 0.631769 0.019373 0.500000 
64 1 0.641446 0.036666 0.500000 
65 1 0.651657 0.019829 0.500000 
66 1 0.661334 0.037110 0.500000 
67 1 0.671546 0.020261 0.500000 
68 1 0.681223 0.037533 0.500000 
69 1 0.691436 0.020670 0.500000 
70 1 0.701115 0.037931 0.500000 
71 1 0.711328 0.021058 0.500000 
72 1 0.721007 0.038307 0.500000 
73 1 0.731222 0.021423 0.500000 
74 1 0.740905 0.038660 0.500000 
75 1 0.751120 0.021768 0.500000 
76 1 0.760806 0.038993 0.500000 
77 1 0.771021 0.022094 0.500000 
78 1 0.780711 0.039305 0.500000 
79 1 0.790927 0.022399 0.500000 
80 1 0.800620 0.039597 0.500000 
81 1 0.810837 0.022687 0.500000 
82 1 0.820536 0.039873 0.500000 
83 1 0.830751 0.022958 0.500000 
84 1 0.840456 0.040130 0.500000 
85 1 0.850671 0.023211 0.500000 
86 1 0.860382 0.040369 0.500000 
87 1 0.870595 0.023449 0.500000 
88 1 0.880312 0.040595 0.500000 
89 1 0.890525 0.023674 0.500000 
90 1 0.900248 0.040807 0.500000 
91 1 0.910459 0.023884 0.500000 
92 1 0.920188 0.041005 0.500000 
93 1 0.930398 0.024080 0.500000 
94 1 0.940134 0.041192 0.500000 
95 1 0.950341 0.024267 0.500000 
96 1 0.960084 0.041368 0.500000 
97 1 0.970290 0.024443 0.500000 
98 1 0.980040 0.041531 0.500000 
99 1 0.990243 0.024606 0.500000 
100 1 1.000000 0.041686 0.500000 
101 1 0.011983 0.033545 0.500000 
102 1 0.021650 0.050615 0.500000 
103 1 0.032014 0.034148 0.500000 
104 1 0.041680 0.051227 0.500000 
105 1 0.052044 0.034760 0.500000 
106 1 0.061715 0.051847 0.500000 
107 1 0.072075 0.035381 0.500000 
108 1 0.081748 0.052472 0.500000 
109 1 0.092107 0.036012 0.500000 
110 1 0.101793 0.053116 0.500000 
111 1 0.112138 0.036650 0.500000 
112 1 0.121822 0.053773 0.500000 
113 1 0.132168 0.037297 0.500000 
114 1 0.141855 0.054426 0.500000 
115 1 0.152197 0.037952 0.500000 
116 1 0.161889 0.055098 0.500000 
117 1 0.172226 0.038617 0.500000 
118 1 0.181915 0.055785 0.500000 
119 1 0.192251 0.039288 0.500000 
120 1 0.201940 0.056462 0.500000 
121 1 0.212274 0.039967 0.500000 
122 1 0.221964 0.057161 0.500000 
123 1 0.232293 0.040654 0.500000 
124 1 0.241976 0.057864 0.500000 
125 1 0.252309 0.041345 0.500000 
126 1 0.261995 0.058567 0.500000 
127 1 0.272318 0.042042 0.500000 
128 1 0.282006 0.059279 0.500000 
129 1 0.292324 0.042743 0.500000 
130 1 0.302006 0.059998 0.500000 
131 1 0.312323 0.043447 0.500000 
132 1 0.322005 0.060726 0.500000 
133 1 0.332314 0.044150 0.500000 
134 1 0.341992 0.061436 0.500000 
135 1 0.352297 0.044856 0.500000 
136 1 0.361974 0.062134 0.500000 
137 1 0.372273 0.045557 0.500000 
138 1 0.381946 0.062855 0.500000 
139 1 0.392240 0.046254 0.500000 
140 1 0.401903 0.063569 0.500000 
141 1 0.412198 0.046944 0.500000 
142 1 0.421849 0.064267 0.500000 
143 1 0.432147 0.047626 0.500000 
144 1 0.441789 0.064959 0.500000 
145 1 0.452087 0.048297 0.500000 
146 1 0.461723 0.065641 0.500000 
147 1 0.472018 0.048954 0.500000 
148 1 0.481646 0.066301 0.500000 
149 1 0.491940 0.049595 0.500000 
150 1 0.501561 0.066935 0.500000 
151 1 0.511855 0.050220 0.500000 
152 1 0.521474 0.067562 0.500000 
153 1 0.531762 0.050823 0.500000 
154 1 0.541384 0.068159 0.500000 
155 1 0.551663 0.051406 0.500000 
156 1 0.561285 0.068733 0.500000 
157 1 0.571560 0.051966 0.500000 
158 1 0.581172 0.069286 0.500000 
159 1 0.591452 0.052503 0.500000 
160 1 0.601061 0.069807 0.500000 
161 1 0.611341 0.053013 0.500000 
162 1 0.620959 0.070306 0.500000 
163 1 0.631230 0.053499 0.500000 
164 1 0.640855 0.070784 0.500000 
165 1 0.651117 0.053960 0.500000 
166 1 0.660756 0.071233 0.500000 
167 1 0.671006 0.054396 0.500000 
168 1 0.680652 0.071656 0.500000 
169 1 0.690897 0.054806 0.500000 
170 1 0.700548 0.072049 0.500000 
171 1 0.710789 0.055192 0.500000 
172 1 0.720452 0.072419 0.500000 
173 1 0.730685 0.055554 0.500000 
174 1 0.740368 0.072772 0.500000 
175 1 0.750586 0.055894 0.500000 
176 1 0.760280 0.073108 0.500000 
177 1 0.770490 0.056213 0.500000 
178 1 0.780186 0.073405 0.500000 
179 1 0.790400 0.056511 0.500000 
180 1 0.800103 0.073684 0.500000 
181 1 0.810316 0.056789 0.500000 
182 1 0.820029 0.073953 0.500000 
183 1 0.830238 0.057049 0.500000 
184 1 0.839957 0.074207 0.500000 
185 1 0.850164 0.057294 0.500000 
186 1 0.859890 0.074435 0.500000 
187 1 0.870095 0.057522 0.500000 
188 1 0.879823 0.074648 0.500000 
189 1 0.890032 0.057734 0.500000 
190 1 0.899761 0.074853 0.500000 
191 1 0.909975 0.057934 0.500000 
192 1 0.919707 0.075043 0.500000 
193 1 0.929922 0.058120 0.500000 
194 1 0.939665 0.075228 0.500000 
195 1 0.949875 0.058294 0.500000 
196 1 0.959621 0.075390 0.500000 
197 1 0.969833 0.058458 0.500000 
198 1 0.979588 0.075542 0.500000 
199 1 0.989796 0.058613 0.500000 
200 1 0.999557 0.075685 0.500000 
201 1 0.011275 0.067077 0.500000 
202 1 0.020924 0.084144 0.500000 
203 1 0.031308 0.067688 0.500000 
204 1 0.040959 0.084763 0.500000 
205 1 0.051342 0.068307 0.500000 
206 1 0.060994 0.085390 0.500000 
207 1 0.071376 0.068936 0.500000 
208 1 0.081045 0.086025 0.500000 
209 1 0.091431 0.069567 0.500000 
210 1 0.101079 0.086701 0.500000 
211 1 0.111467 0.070248 0.500000 
212 1 0.121128 0.087377 0.500000 
213 1 0.131501 0.070904 0.500000 
214 1 0.141165 0.088047 0.500000 
215 1 0.151532 0.071576 0.500000 
216 1 0.161194 0.088741 0.500000 
217 1 0.171562 0.072272 0.500000 
218 1 0.181236 0.089439 0.500000 
219 1 0.191595 0.072962 0.500000 
220 1 0.201268 0.090147 0.500000 
221 1 0.211617 0.073655 0.500000 
222 1 0.221295 0.090860 0.500000 
223 1 0.231642 0.074371 0.500000 
224 1 0.241326 0.091576 0.500000 
225 1 0.251673 0.075078 0.500000 
226 1 0.261347 0.092308 0.500000 
227 1 0.271692 0.075802 0.500000 
228 1 0.281360 0.093055 0.500000 
229 1 0.291691 0.076533 0.500000 
230 1 0.301365 0.093791 0.500000 
231 1 0.311689 0.077265 0.500000 
232 1 0.321364 0.094542 0.500000 
233 1 0.331686 0.078004 0.500000 
234 1 0.341354 0.095296 0.500000 
235 1 0.351668 0.078724 0.500000 
236 1 0.361323 0.096043 0.500000 
237 1 0.371636 0.079448 0.500000 
238 1 0.381285 0.096791 0.500000 
239 1 0.391600 0.080190 0.500000 
240 1 0.401251 0.097534 0.500000 
241 1 0.411553 0.080905 0.500000 
242 1 0.421197 0.098258 0.500000 
243 1 0.431495 0.081614 0.500000 
244 1 0.441134 0.098975 0.500000 
245 1 0.451425 0.082311 0.500000 
246 1 0.461059 0.099671 0.500000 
247 1 0.471350 0.082990 0.500000 
248 1 0.480975 0.100346 0.500000 
249 1 0.491273 0.083648 0.500000 
250 1 0.500886 0.101014 0.500000 
251 1 0.511182 0.084288 0.500000 
252 1 0.520795 0.101641 0.500000 
253 1 0.531094 0.084906 0.500000 
254 1 0.540709 0.102255 0.500000 
255 1 0.550999 0.085497 0.500000 
256 1 0.560618 0.102847 0.500000 
257 1 0.570898 0.086073 0.500000 
258 1 0.580525 0.103395 0.500000 
259 1 0.590798 0.086603 0.500000 
260 1 0.600428 0.103921 0.500000 
261 1 0.610696 0.087111 0.500000 
262 1 0.620327 0.104425 0.500000 
263 1 0.630592 0.087608 0.500000 
264 1 0.640232 0.104897 0.500000 
265 1 0.650489 0.088061 0.500000 
266 1 0.660135 0.105336 0.500000 
267 1 0.670393 0.088499 0.500000 
268 1 0.680046 0.105756 0.500000 
269 1 0.690297 0.088903 0.500000 
270 1 0.699957 0.106144 0.500000 
271 1 0.710204 0.089285 0.500000 
272 1 0.719876 0.106513 0.500000 
273 1 0.730110 0.089637 0.500000 
274 1 0.739790 0.106855 0.500000 
275 1 0.750023 0.089981 0.500000 
276 1 0.759708 0.107180 0.500000 
277 1 0.769945 0.090299 0.500000 
278 1 0.779632 0.107485 0.500000 
279 1 0.789868 0.090579 0.500000 
280 1 0.799557 0.107760 0.500000 
281 1 0.809799 0.090858 0.500000 
282 1 0.819492 0.108029 0.500000 
283 1 0.829729 0.091118 0.500000 
284 1 0.839437 0.108261 0.500000 
285 1 0.849667 0.091349 0.500000 
286 1 0.859379 0.108488 0.500000 
287 1 0.869606 0.091570 0.500000 
288 1 0.879330 0.108699 0.500000 
289 1 0.889551 0.091770 0.500000 
290 1 0.899280 0.108893 0.500000 
291 1 0.909502 0.091971 0.500000 
292 1 0.919238 0.109081 0.500000 
293 1 0.929453 0.092151 0.500000 
294 1 0.939198 0.109249 0.500000 
295 1 0.949407 0.092323 0.500000 
296 1 0.959160 0.109410 0.500000 
297 1 0.969375 0.092475 0.500000 
298 1 0.979136 0.109550 0.500000 
299 1 0.989349 0.092617 0.500000 
300 1 0.999117 0.109681 0.500000 
301 1 0.010532 0.100598 0.500000 
302 1 0.020165 0.117663 0.500000 
303 1 0.030566 0.101214 0.500000 
304 1 0.040201 0.118287 0.500000 
305 1 0.050602 0.101839 0.500000 
306 1 0.060239 0.118920 0.500000 
307 1 0.070640 0.102476 0.500000 
308 1 0.080283 0.119583 0.500000 
309 1 0.090683 0.103146 0.500000 
310 1 0.100330 0.120262 0.500000 
311 1 0.110739 0.103826 0.500000 
312 1 0.120383 0.120946 0.500000 
313 1 0.130797 0.104507 0.500000 
314 1 0.140426 0.121657 0.500000 
315 1 0.150826 0.105202 0.500000 
316 1 0.160475 0.122344 0.500000 
317 1 0.170861 0.105892 0.500000 
318 1 0.180522 0.123063 0.500000 
319 1 0.190899 0.106614 0.500000 
320 1 0.200567 0.123802 0.500000 
321 1 0.210932 0.107336 0.500000 
322 1 0.220607 0.124533 0.500000 
323 1 0.230969 0.108062 0.500000 
324 1 0.240629 0.125297 0.500000 
325 1 0.250987 0.108807 0.500000 
326 1 0.260647 0.126044 0.500000 
327 1 0.271006 0.109552 0.500000 
328 1 0.280665 0.126802 0.500000 
329 1 0.291029 0.110311 0.500000 
330 1 0.300684 0.127589 0.500000 
331 1 0.311033 0.111069 0.500000 
332 1 0.320688 0.128363 0.500000 
333 1 0.331028 0.111834 0.500000 
334 1 0.340673 0.129151 0.500000 
335 1 0.351011 0.112612 0.500000 
336 1 0.360647 0.129944 0.500000 
337 1 0.370982 0.113378 0.500000 
338 1 0.380616 0.130723 0.500000 
339 1 0.390946 0.114135 0.500000 
340 1 0.400569 0.131500 0.500000 
341 1 0.410894 0.114892 0.500000 
342 1 0.420517 0.132263 0.500000 
343 1 0.430831 0.115627 0.500000 
344 1 0.440456 0.133007 0.500000 
345 1 0.450762 0.116347 0.500000 
346 1 0.460386 0.133732 0.500000 
347 1 0.470687 0.117046 0.500000 
348 1 0.480306 0.134439 0.500000 
349 1 0.490599 0.117725 0.500000 
350 1 0.500224 0.135102 0.500000 
351 1 0.510517 0.118382 0.500000 
352 1 0.520143 0.135753 0.500000 
353 1 0.530427 0.118998 0.500000 
354 1 0.540043 0.136367 0.500000 
355 1 0.550337 0.119607 0.500000 
356 1 0.559948 0.136964 0.500000 
357 1 0.570244 0.120184 0.500000 
358 1 0.579852 0.137522 0.500000 
359 1 0.590148 0.120723 0.500000 
360 1 0.599759 0.138050 0.500000 
361 1 0.610055 0.121244 0.500000 
362 1 0.619672 0.138553 0.500000 
363 1 0.629960 0.121726 0.500000 
364 1 0.639583 0.139026 0.500000 
365 1 0.649863 0.122179 0.500000 
366 1 0.659496 0.139458 0.500000 
367 1 0.669776 0.122603 0.500000 
368 1 0.679412 0.139871 0.500000 
369 1 0.689689 0.123012 0.500000 
370 1 0.699335 0.140258 0.500000 
371 1 0.709606 0.123382 0.500000 
372 1 0.719260 0.140622 0.500000 
373 1 0.729528 0.123738 0.500000 
374 1 0.739192 0.140956 0.500000 
375 1 0.749455 0.124069 0.500000 
376 1 0.759120 0.141279 0.500000 
377 1 0.769382 0.124380 0.500000 
378 1 0.779055 0.141577 0.500000 
379 1 0.789316 0.124672 0.500000 
380 1 0.799000 0.141854 0.500000 
381 1 0.809254 0.124942 0.500000 
382 1 0.818952 0.142103 0.500000 
383 1 0.829202 0.125179 0.500000 
384 1 0.838900 0.142330 0.500000 
385 1 0.849145 0.125408 0.500000 
386 1 0.858853 0.142543 0.500000 
387 1 0.869096 0.125621 0.500000 
388 1 0.878817 0.142740 0.500000 
389 1 0.889057 0.125821 0.500000 
390 1 0.898791 0.142924 0.500000 
391 1 0.909020 0.126004 0.500000 
392 1 0.918755 0.143107 0.500000 
393 1 0.928979 0.126179 0.500000 
394 1 0.938720 0.143273 0.500000 
395 1 0.948940 0.126349 0.500000 
396 1 0.958701 0.143428 0.500000 
397 1 0.968919 0.126487 0.500000 
398 1 0.978689 0.143555 0.500000 
399 1 0.988905 0.126616 0.500000 
400 1 0.998682 0.143674 0.500000 
401 1 0.009754 0.134110 0.500000 
402 1 0.019367 0.151171 0.500000 
403 1 0.029790 0.134729 0.500000 
404 1 0.039403 0.151799 0.500000 
405 1 0.049825 0.135360 0.500000 
406 1 0.059442 0.152437 0.500000 
407 1 0.069865 0.136003 0.500000 
408 1 0.079492 0.153105 0.500000 
409 1 0.089917 0.136692 0.500000 
410 1 0.099553 0.153803 0.500000 
411 1 0.109967 0.137379 0.500000 
412 1 0.119604 0.154512 0.500000 
413 1 0.130017 0.138091 0.500000 
414 1 0.139666 0.155224 0.500000 
415 1 0.150084 0.138794 0.500000 
416 1 0.159716 0.155950 0.500000 
417 1 0.170131 0.139509 0.500000 
418 1 0.179764 0.156682 0.500000 
419 1 0.190178 0.140249 0.500000 
420 1 0.199819 0.157434 0.500000 
421 1 0.210223 0.140995 0.500000 
422 1 0.219856 0.158214 0.500000 
423 1 0.230252 0.141764 0.500000 
424 1 0.239899 0.158988 0.500000 
425 1 0.250285 0.142528 0.500000 
426 1 0.259930 0.159775 0.500000 
427 1 0.270303 0.143294 0.500000 
428 1 0.279945 0.160564 0.500000 
429 1 0.290315 0.144078 0.500000 
430 1 0.299959 0.161372 0.500000 
431 1 0.310333 0.144881 0.500000 
432 1 0.319967 0.162195 0.500000 
433 1 0.330332 0.145681 0.500000 
434 1 0.339958 0.163027 0.500000 
435 1 0.350311 0.146496 0.500000 
436 1 0.359939 0.163859 0.500000 
437 1 0.370281 0.147301 0.500000 
438 1 0.379910 0.164678 0.500000 
439 1 0.390245 0.148098 0.500000 
440 1 0.399878 0.165479 0.500000 
441 1 0.410203 0.148878 0.500000 
442 1 0.419833 0.166273 0.500000 
443 1 0.430149 0.149649 0.500000 
444 1 0.439775 0.167054 0.500000 
445 1 0.450082 0.150406 0.500000 
446 1 0.459711 0.167815 0.500000 
447 1 0.470006 0.151130 0.500000 
448 1 0.479630 0.168536 0.500000 
449 1 0.489931 0.151826 0.500000 
450 1 0.499545 0.169224 0.500000 
451 1 0.509847 0.152494 0.500000 
452 1 0.519462 0.169896 0.500000 
453 1 0.529753 0.153139 0.500000 
454 1 0.539373 0.170520 0.500000 
455 1 0.549658 0.153738 0.500000 
456 1 0.559281 0.171112 0.500000 
457 1 0.569569 0.154318 0.500000 
458 1 0.579193 0.171677 0.500000 
459 1 0.589480 0.154862 0.500000 
460 1 0.599105 0.172207 0.500000 
461 1 0.609392 0.155377 0.500000 
462 1 0.619015 0.172702 0.500000 
463 1 0.629307 0.155861 0.500000 
464 1 0.638925 0.173167 0.500000 
465 1 0.649221 0.156314 0.500000 
466 1 0.658840 0.173600 0.500000 
467 1 0.669139 0.156735 0.500000 
468 1 0.678768 0.174002 0.500000 
469 1 0.689064 0.157132 0.500000 
470 1 0.698702 0.174389 0.500000 
471 1 0.708992 0.157507 0.500000 
472 1 0.718644 0.174737 0.500000 
473 1 0.728929 0.157847 0.500000 
474 1 0.738583 0.175066 0.500000 
475 1 0.748865 0.158173 0.500000 
476 1 0.758532 0.175377 0.500000 
477 1 0.768805 0.158482 0.500000 
478 1 0.778490 0.175668 0.500000 
479 1 0.788746 0.158764 0.500000 
480 1 0.798453 0.175934 0.500000 
481 1 0.808694 0.159019 0.500000 
482 1 0.818416 0.176172 0.500000 
483 1 0.828656 0.159255 0.500000 
484 1 0.838380 0.176400 0.500000 
485 1 0.848614 0.159469 0.500000 
486 1 0.858343 0.176602 0.500000 
487 1 0.868575 0.159671 0.500000 
488 1 0.878322 0.176788 0.500000 
489 1 0.888545 0.159846 0.500000 
490 1 0.898297 0.176951 0.500000 
491 1 0.908524 0.160024 0.500000 
492 1 0.918278 0.177124 0.500000 
493 1 0.928502 0.160204 0.500000 
494 1 0.938264 0.177299 0.500000 
495 1 0.948477 0.160370 0.500000 
496 1 0.958249 0.177440 0.500000 
497 1 0.968470 0.160496 0.500000 
498 1 0.978251 0.177553 0.500000 
499 1 0.988467 0.160611 0.500000 
500 1 0.998258 0.177659 0.500000 
501 1 0.008938 0.167610 0.500000 
502 1 0.018532 0.184668 0.500000 
503 1 0.028972 0.168234 0.500000 
504 1 0.038566 0.185299 0.500000 
505 1 0.049008 0.168868 0.500000 
506 1 0.058602 0.185942 0.500000 
507 1 0.069047 0.169517 0.500000 
508 1 0.078663 0.186621 0.500000 
509 1 0.089102 0.170208 0.500000 
510 1 0.098720 0.187322 0.500000 
511 1 0.109162 0.170923 0.500000 
512 1 0.118787 0.188039 0.500000 
513 1 0.129228 0.171635 0.500000 
514 1 0.138845 0.188783 0.500000 
515 1 0.149286 0.172377 0.500000 
516 1 0.158906 0.189530 0.500000 
517 1 0.169342 0.173108 0.500000 
518 1 0.178961 0.190274 0.500000 
519 1 0.189399 0.173854 0.500000 
520 1 0.199008 0.191053 0.500000 
521 1 0.209449 0.174643 0.500000 
522 1 0.219067 0.191849 0.500000 
523 1 0.229497 0.175428 0.500000 
524 1 0.239118 0.192657 0.500000 
525 1 0.249534 0.176227 0.500000 
526 1 0.259154 0.193481 0.500000 
527 1 0.269560 0.177036 0.500000 
528 1 0.279189 0.194307 0.500000 
529 1 0.289578 0.177845 0.500000 
530 1 0.299210 0.195156 0.500000 
531 1 0.309592 0.178687 0.500000 
532 1 0.319227 0.196019 0.500000 
533 1 0.329594 0.179533 0.500000 
534 1 0.339229 0.196886 0.500000 
535 1 0.349587 0.180386 0.500000 
536 1 0.359220 0.197759 0.500000 
537 1 0.369567 0.181235 0.500000 
538 1 0.379196 0.198621 0.500000 
539 1 0.389537 0.182060 0.500000 
540 1 0.399159 0.199467 0.500000 
541 1 0.409499 0.182880 0.500000 
542 1 0.419110 0.200301 0.500000 
543 1 0.429449 0.183686 0.500000 
544 1 0.439054 0.201117 0.500000 
545 1 0.449388 0.184471 0.500000 
546 1 0.458985 0.201912 0.500000 
547 1 0.469320 0.185236 0.500000 
548 1 0.478915 0.202676 0.500000 
549 1 0.489245 0.185960 0.500000 
550 1 0.498845 0.203391 0.500000 
551 1 0.509160 0.186641 0.500000 
552 1 0.518766 0.204071 0.500000 
553 1 0.529071 0.187297 0.500000 
554 1 0.538678 0.204709 0.500000 
555 1 0.548978 0.187911 0.500000 
556 1 0.558587 0.205307 0.500000 
557 1 0.568887 0.188490 0.500000 
558 1 0.578495 0.205871 0.500000 
559 1 0.588799 0.189037 0.500000 
560 1 0.598416 0.206393 0.500000 
561 1 0.608717 0.189548 0.500000 
562 1 0.618343 0.206882 0.500000 
563 1 0.628638 0.190026 0.500000 
564 1 0.638270 0.207339 0.500000 
565 1 0.648560 0.190472 0.500000 
566 1 0.658202 0.207763 0.500000 
567 1 0.668489 0.190879 0.500000 
568 1 0.678135 0.208162 0.500000 
569 1 0.688423 0.191270 0.500000 
570 1 0.698085 0.208520 0.500000 
571 1 0.708370 0.191623 0.500000 
572 1 0.718040 0.208860 0.500000 
573 1 0.728322 0.191966 0.500000 
574 1 0.738004 0.209182 0.500000 
575 1 0.748273 0.192275 0.500000 
576 1 0.757965 0.209470 0.500000 
577 1 0.768231 0.192566 0.500000 
578 1 0.777930 0.209747 0.500000 
579 1 0.788200 0.192837 0.500000 
580 1 0.797898 0.210006 0.500000 
581 1 0.808169 0.193094 0.500000 
582 1 0.817880 0.210242 0.500000 
583 1 0.828136 0.193321 0.500000 
584 1 0.837856 0.210455 0.500000 
585 1 0.848106 0.193531 0.500000 
586 1 0.857837 0.210649 0.500000 
587 1 0.868080 0.193715 0.500000 
588 1 0.877821 0.210828 0.500000 
589 1 0.888061 0.193896 0.500000 
590 1 0.897811 0.210993 0.500000 
591 1 0.908044 0.194054 0.500000 
592 1 0.917799 0.211160 0.500000 
593 1 0.928029 0.194224 0.500000 
594 1 0.937799 0.211314 0.500000 
595 1 0.948021 0.194385 0.500000 
596 1 0.957807 0.211443 0.500000 
597 1 0.968031 0.194496 0.500000 
598 1 0.977825 0.211543 0.500000 
599 1 0.988043 0.194599 0.500000 
600 1 0.997847 0.211634 0.500000 
601 1 0.008083 0.201103 0.500000 
602 1 0.017654 0.218157 0.500000 
603 1 0.028113 0.201727 0.500000 
604 1 0.037684 0.218790 0.500000 
605 1 0.048147 0.202367 0.500000 
606 1 0.057718 0.219436 0.500000 
607 1 0.068185 0.203017 0.500000 
608 1 0.077770 0.220120 0.500000 
609 1 0.088251 0.203724 0.500000 
610 1 0.097838 0.220828 0.500000 
611 1 0.108319 0.204434 0.500000 
612 1 0.117903 0.221568 0.500000 
613 1 0.128380 0.205178 0.500000 
614 1 0.137965 0.222322 0.500000 
615 1 0.148443 0.205933 0.500000 
616 1 0.158041 0.223081 0.500000 
617 1 0.168511 0.206689 0.500000 
618 1 0.178108 0.223866 0.500000 
619 1 0.188564 0.207464 0.500000 
620 1 0.198170 0.224653 0.500000 
621 1 0.208628 0.208255 0.500000 
622 1 0.218230 0.225471 0.500000 
623 1 0.228690 0.209071 0.500000 
624 1 0.238291 0.226311 0.500000 
625 1 0.248738 0.209908 0.500000 
626 1 0.258351 0.227159 0.500000 
627 1 0.268783 0.210743 0.500000 
628 1 0.278389 0.228040 0.500000 
629 1 0.288813 0.211610 0.500000 
630 1 0.298419 0.228931 0.500000 
631 1 0.308837 0.212486 0.500000 
632 1 0.318444 0.229831 0.500000 
633 1 0.328847 0.213369 0.500000 
634 1 0.338449 0.230746 0.500000 
635 1 0.348837 0.214258 0.500000 
636 1 0.358436 0.231660 0.500000 
637 1 0.368819 0.215153 0.500000 
638 1 0.378421 0.232570 0.500000 
639 1 0.388794 0.216030 0.500000 
640 1 0.398385 0.233478 0.500000 
641 1 0.408749 0.216899 0.500000 
642 1 0.418339 0.234355 0.500000 
643 1 0.428697 0.217743 0.500000 
644 1 0.438276 0.235219 0.500000 
645 1 0.448633 0.218576 0.500000 
646 1 0.458209 0.236045 0.500000 
647 1 0.468564 0.219370 0.500000 
648 1 0.478137 0.236838 0.500000 
649 1 0.488492 0.220122 0.500000 
650 1 0.498064 0.237582 0.500000 
651 1 0.508414 0.220829 0.500000 
652 1 0.517990 0.238277 0.500000 
653 1 0.528336 0.221496 0.500000 
654 1 0.537912 0.238924 0.500000 
655 1 0.548256 0.222119 0.500000 
656 1 0.557832 0.239531 0.500000 
657 1 0.568171 0.222704 0.500000 
658 1 0.577763 0.240091 0.500000 
659 1 0.588091 0.223244 0.500000 
660 1 0.597695 0.240609 0.500000 
661 1 0.608017 0.223741 0.500000 
662 1 0.617627 0.241087 0.500000 
663 1 0.627949 0.224211 0.500000 
664 1 0.637574 0.241525 0.500000 
665 1 0.647890 0.224642 0.500000 
666 1 0.657529 0.241941 0.500000 
667 1 0.667832 0.225054 0.500000 
668 1 0.677489 0.242321 0.500000 
669 1 0.687783 0.225422 0.500000 
670 1 0.697451 0.242674 0.500000 
671 1 0.707737 0.225762 0.500000 
672 1 0.717413 0.242999 0.500000 
673 1 0.727703 0.226086 0.500000 
674 1 0.737391 0.243299 0.500000 
675 1 0.747680 0.226383 0.500000 
676 1 0.757373 0.243575 0.500000 
677 1 0.767652 0.226658 0.500000 
678 1 0.777358 0.243838 0.500000 
679 1 0.787628 0.226920 0.500000 
680 1 0.797341 0.244084 0.500000 
681 1 0.807615 0.227158 0.500000 
682 1 0.817333 0.244310 0.500000 
683 1 0.827605 0.227386 0.500000 
684 1 0.837336 0.244522 0.500000 
685 1 0.847591 0.227583 0.500000 
686 1 0.857334 0.244711 0.500000 
687 1 0.867576 0.227767 0.500000 
688 1 0.877333 0.244871 0.500000 
689 1 0.887573 0.227932 0.500000 
690 1 0.897334 0.245032 0.500000 
691 1 0.907570 0.228094 0.500000 
692 1 0.917348 0.245178 0.500000 
693 1 0.927578 0.228247 0.500000 
694 1 0.937370 0.245319 0.500000 
695 1 0.947580 0.228392 0.500000 
696 1 0.957383 0.245436 0.500000 
697 1 0.967605 0.228489 0.500000 
698 1 0.977417 0.245522 0.500000 
699 1 0.987634 0.228577 0.500000 
700 1 0.997455 0.245600 0.500000 
701 1 0.007189 0.234587 0.500000 
702 1 0.016737 0.251640 0.500000 
703 1 0.027214 0.235215 0.500000 
704 1 0.036760 0.252274 0.500000 
705 1 0.047243 0.235854 0.500000 
706 1 0.056787 0.252921 0.500000 
707 1 0.067275 0.236508 0.500000 
708 1 0.076842 0.253609 0.500000 
709 1 0.087348 0.237220 0.500000 
710 1 0.096903 0.254326 0.500000 
711 1 0.107413 0.237943 0.500000 
712 1 0.116963 0.255066 0.500000 
713 1 0.127474 0.238705 0.500000 
714 1 0.137039 0.255826 0.500000 
715 1 0.147542 0.239456 0.500000 
716 1 0.157106 0.256603 0.500000 
717 1 0.167614 0.240241 0.500000 
718 1 0.177188 0.257397 0.500000 
719 1 0.187694 0.241038 0.500000 
720 1 0.197270 0.258227 0.500000 
721 1 0.207762 0.241859 0.500000 
722 1 0.217348 0.259076 0.500000 
723 1 0.227831 0.242701 0.500000 
724 1 0.237412 0.259946 0.500000 
725 1 0.247892 0.243557 0.500000 
726 1 0.257460 0.260834 0.500000 
727 1 0.267939 0.244444 0.500000 
728 1 0.277518 0.261742 0.500000 
729 1 0.287982 0.245351 0.500000 
730 1 0.297566 0.262690 0.500000 
731 1 0.308013 0.246271 0.500000 
732 1 0.317599 0.263635 0.500000 
733 1 0.328035 0.247204 0.500000 
734 1 0.337613 0.264598 0.500000 
735 1 0.348041 0.248147 0.500000 
736 1 0.357615 0.265570 0.500000 
737 1 0.368029 0.249080 0.500000 
738 1 0.377593 0.266537 0.500000 
739 1 0.388003 0.250027 0.500000 
740 1 0.397562 0.267508 0.500000 
741 1 0.407959 0.250946 0.500000 
742 1 0.417521 0.268445 0.500000 
743 1 0.427905 0.251843 0.500000 
744 1 0.437473 0.269351 0.500000 
745 1 0.447848 0.252708 0.500000 
746 1 0.457407 0.270227 0.500000 
747 1 0.467775 0.253536 0.500000 
748 1 0.477322 0.271047 0.500000 
749 1 0.487697 0.254318 0.500000 
750 1 0.497239 0.271810 0.500000 
751 1 0.507626 0.255049 0.500000 
752 1 0.517166 0.272525 0.500000 
753 1 0.527556 0.255731 0.500000 
754 1 0.537101 0.273176 0.500000 
755 1 0.547480 0.256357 0.500000 
756 1 0.557035 0.273776 0.500000 
757 1 0.567406 0.256932 0.500000 
758 1 0.576974 0.274332 0.500000 
759 1 0.587341 0.257471 0.500000 
760 1 0.596929 0.274835 0.500000 
761 1 0.607284 0.257962 0.500000 
762 1 0.616890 0.275295 0.500000 
763 1 0.627235 0.258414 0.500000 
764 1 0.636863 0.275724 0.500000 
765 1 0.647196 0.258828 0.500000 
766 1 0.656835 0.276124 0.500000 
767 1 0.667166 0.259221 0.500000 
768 1 0.676813 0.276492 0.500000 
769 1 0.687139 0.259580 0.500000 
770 1 0.696795 0.276837 0.500000 
771 1 0.707114 0.259922 0.500000 
772 1 0.716787 0.277149 0.500000 
773 1 0.727096 0.260220 0.500000 
774 1 0.736782 0.277436 0.500000 
775 1 0.747089 0.260508 0.500000 
776 1 0.756789 0.277701 0.500000 
777 1 0.767086 0.260762 0.500000 
778 1 0.776792 0.277946 0.500000 
779 1 0.787082 0.261015 0.500000 
780 1 0.796801 0.278180 0.500000 
781 1 0.807079 0.261247 0.500000 
782 1 0.816817 0.278397 0.500000 
783 1 0.827081 0.261456 0.500000 
784 1 0.836836 0.278586 0.500000 
785 1 0.847091 0.261649 0.500000 
786 1 0.856861 0.278757 0.500000 
787 1 0.867105 0.261816 0.500000 
788 1 0.876887 0.278908 0.500000 
789 1 0.887118 0.261967 0.500000 
790 1 0.896902 0.279056 0.500000 
791 1 0.907131 0.262115 0.500000 
792 1 0.916921 0.279189 0.500000 
793 1 0.927148 0.262252 0.500000 
794 1 0.936946 0.279322 0.500000 
795 1 0.947159 0.262387 0.500000 
796 1 0.956982 0.279417 0.500000 
797 1 0.967200 0.262468 0.500000 
798 1 0.977036 0.279488 0.500000 
799 1 0.987245 0.262544 0.500000 
800 1 0.997089 0.279555 0.500000 
801 1 0.006256 0.268068 0.500000 
802 1 0.015779 0.285121 0.500000 
803 1 0.026272 0.268696 0.500000 
804 1 0.035792 0.285753 0.500000 
805 1 0.046292 0.269335 0.500000 
806 1 0.055810 0.286400 0.500000 
807 1 0.066319 0.269991 0.500000 
808 1 0.075857 0.287082 0.500000 
809 1 0.086390 0.270710 0.500000 
810 1 0.095912 0.287814 0.500000 
811 1 0.106450 0.271437 0.500000 
812 1 0.115972 0.288549 0.500000 
813 1 0.126518 0.272183 0.500000 
814 1 0.136045 0.289310 0.500000 
815 1 0.146592 0.272959 0.500000 
816 1 0.156127 0.290099 0.500000 
817 1 0.166666 0.273750 0.500000 
818 1 0.176204 0.290915 0.500000 
819 1 0.186745 0.274575 0.500000 
820 1 0.196284 0.291764 0.500000 
821 1 0.206825 0.275427 0.500000 
822 1 0.216368 0.292639 0.500000 
823 1 0.226904 0.276309 0.500000 
824 1 0.236447 0.293556 0.500000 
825 1 0.246968 0.277213 0.500000 
826 1 0.256521 0.294477 0.500000 
827 1 0.267033 0.278118 0.500000 
828 1 0.276575 0.295432 0.500000 
829 1 0.287084 0.279072 0.500000 
830 1 0.296628 0.296410 0.500000 
831 1 0.307131 0.280038 0.500000 
832 1 0.316676 0.297412 0.500000 
833 1 0.327162 0.281021 0.500000 
834 1 0.336702 0.298442 0.500000 
835 1 0.347172 0.282022 0.500000 
836 1 0.356712 0.299482 0.500000 
837 1 0.367166 0.283028 0.500000 
838 1 0.376702 0.300518 0.500000 
839 1 0.387144 0.284028 0.500000 
840 1 0.396681 0.301545 0.500000 
841 1 0.407113 0.285015 0.500000 
842 1 0.416648 0.302548 0.500000 
843 1 0.427071 0.285969 0.500000 
844 1 0.436599 0.303526 0.500000 
845 1 0.447012 0.286892 0.500000 
846 1 0.456535 0.304447 0.500000 
847 1 0.466940 0.287761 0.500000 
848 1 0.476467 0.305301 0.500000 
849 1 0.486863 0.288565 0.500000 
850 1 0.496394 0.306099 0.500000 
851 1 0.506786 0.289313 0.500000 
852 1 0.516326 0.306813 0.500000 
853 1 0.526721 0.289992 0.500000 
854 1 0.536267 0.307458 0.500000 
855 1 0.546664 0.290622 0.500000 
856 1 0.556222 0.308057 0.500000 
857 1 0.566610 0.291196 0.500000 
858 1 0.576189 0.308604 0.500000 
859 1 0.586565 0.291712 0.500000 
860 1 0.596156 0.309092 0.500000 
861 1 0.606527 0.292189 0.500000 
862 1 0.616132 0.309530 0.500000 
863 1 0.626496 0.292621 0.500000 
864 1 0.636120 0.309937 0.500000 
865 1 0.646476 0.293029 0.500000 
866 1 0.656120 0.310316 0.500000 
867 1 0.666466 0.293403 0.500000 
868 1 0.676124 0.310670 0.500000 
869 1 0.686463 0.293758 0.500000 
870 1 0.696145 0.310998 0.500000 
871 1 0.706467 0.294076 0.500000 
872 1 0.716168 0.311299 0.500000 
873 1 0.726469 0.294366 0.500000 
874 1 0.736188 0.311566 0.500000 
875 1 0.746478 0.294635 0.500000 
876 1 0.756213 0.311818 0.500000 
877 1 0.766494 0.294884 0.500000 
878 1 0.776246 0.312054 0.500000 
879 1 0.786513 0.295112 0.500000 
880 1 0.796275 0.312267 0.500000 
881 1 0.806538 0.295332 0.500000 