ITEM: TIMESTEP
3000
ITEM: NUMBER OF ATOMS
2850
ITEM: BOX BOUNDS ss ss pp
-28.0536 28.3253 
-28.9988 28.9984 
-0.5 0.5 
ITEM: ATOMS id type xs ys zs
1 1 0.012661 0.000000 0.500000 
2 1 0.022340 0.017073 0.500000 
3 1 0.032688 0.000597 0.500000 
4 1 0.042369 0.017677 0.500000 
5 1 0.052715 0.001202 0.500000 
6 1 0.062397 0.018289 0.500000 
7 1 0.072742 0.001814 0.500000 
8 1 0.082426 0.018911 0.500000 
9 1 0.092767 0.002433 0.500000 
10 1 0.102455 0.019539 0.500000 
11 1 0.112794 0.003060 0.500000 
12 1 0.122484 0.020177 0.500000 
13 1 0.132817 0.003697 0.500000 
14 1 0.142511 0.020822 0.500000 
15 1 0.152841 0.004338 0.500000 
16 1 0.162536 0.021475 0.500000 
17 1 0.172861 0.004988 0.500000 
18 1 0.182559 0.022136 0.500000 
19 1 0.192879 0.005643 0.500000 
20 1 0.202579 0.022803 0.500000 
21 1 0.212895 0.006305 0.500000 
22 1 0.222596 0.023475 0.500000 
23 1 0.232906 0.006973 0.500000 
24 1 0.242610 0.024155 0.500000 
25 1 0.252912 0.007645 0.500000 
26 1 0.262618 0.024839 0.500000 
27 1 0.272914 0.008319 0.500000 
28 1 0.282622 0.025527 0.500000 
29 1 0.292911 0.008997 0.500000 
30 1 0.302619 0.026217 0.500000 
31 1 0.312901 0.009676 0.500000 
32 1 0.322610 0.026908 0.500000 
33 1 0.332885 0.010356 0.500000 
34 1 0.342593 0.027600 0.500000 
35 1 0.352861 0.011033 0.500000 
36 1 0.362570 0.028289 0.500000 
37 1 0.372830 0.011707 0.500000 
38 1 0.382537 0.028974 0.500000 
39 1 0.392791 0.012376 0.500000 
40 1 0.402497 0.029655 0.500000 
41 1 0.412744 0.013039 0.500000 
42 1 0.422448 0.030326 0.500000 
43 1 0.432688 0.013694 0.500000 
44 1 0.442390 0.030989 0.500000 
45 1 0.452624 0.014337 0.500000 
46 1 0.462324 0.031639 0.500000 
47 1 0.472553 0.014968 0.500000 
48 1 0.482250 0.032276 0.500000 
49 1 0.492474 0.015584 0.500000 
50 1 0.502167 0.032896 0.500000 
51 1 0.512388 0.016184 0.500000 
52 1 0.522078 0.033498 0.500000 
53 1 0.532295 0.016766 0.500000 
54 1 0.541983 0.034081 0.500000 
55 1 0.552198 0.017330 0.500000 
56 1 0.561882 0.034643 0.500000 
57 1 0.572095 0.017873 0.500000 
58 1 0.581777 0.035184 0.500000 
59 1 0.591989 0.018396 0.500000 
60 1 0.601668 0.035702 0.500000 
61 1 0.611880 0.018896 0.500000 
62 1 0.621558 0.036195 0.500000 
63 1 0.631769 0.019373 0.500000 
64 1 0.641446 0.036666 0.500000 
65 1 0.651657 0.019829 0.500000 
66 1 0.661334 0.037110 0.500000 
67 1 0.671546 0.020261 0.500000 
68 1 0.681223 0.037533 0.500000 
69 1 0.691436 0.020670 0.500000 
70 1 0.701115 0.037931 0.500000 
71 1 0.711328 0.021058 0.500000 
72 1 0.721007 0.038307 0.500000 
73 1 0.731222 0.021423 0.500000 
74 1 0.740905 0.038660 0.500000 
75 1 0.751120 0.021768 0.500000 
76 1 0.760806 0.038993 0.500000 
77 1 0.771021 0.022094 0.500000 
78 1 0.780711 0.039305 0.500000 
79 1 0.790927 0.022399 0.500000 
80 1 0.800620 0.039597 0.500000 
81 1 0.810837 0.022687 0.500000 
82 1 0.820536 0.039873 0.500000 
83 1 0.830751 0.022958 0.500000 
84 1 0.840456 0.040130 0.500000 
85 1 0.850671 0.023211 0.500000 
86 1 0.860382 0.040369 0.500000 
87 1 0.870595 0.023449 0.500000 
88 1 0.880312 0.040595 0.500000 
89 1 0.890525 0.023674 0.500000 
90 1 0.900248 0.040807 0.500000 
91 1 0.910459 0.023884 0.500000 
92 1 0.920188 0.041005 0.500000 
93 1 0.930398 0.024080 0.500000 
94 1 0.940134 0.041192 0.500000 
95 1 0.950341 0.024267 0.500000 
96 1 0.960084 0.041368 0.500000 
97 1 0.970290 0.024443 0.500000 
98 1 0.980040 0.041531 0.500000 
99 1 0.990243 0.024606 0.500000 
100 1 1.000000 0.041686 0.500000 
101 1 0.011983 0.033545 0.500000 
102 1 0.021650 0.050615 0.500000 
103 1 0.032014 0.034148 0.500000 
104 1 0.041680 0.051227 0.500000 
105 1 0.052044 0.034760 0.500000 
106 1 0.061715 0.051847 0.500000 
107 1 0.072075 0.035381 0.500000 
108 1 0.081758 0.052482 0.500000 
109 1 0.092107 0.036012 0.500000 
110 1 0.101801 0.053123 0.500000 
111 1 0.112138 0.036650 0.500000 
112 1 0.121829 0.053785 0.500000 
113 1 0.132168 0.037297 0.500000 
114 1 0.141867 0.054450 0.500000 
115 1 0.152197 0.037952 0.500000 
116 1 0.161905 0.055118 0.500000 
117 1 0.172226 0.038617 0.500000 
118 1 0.181926 0.055795 0.500000 
119 1 0.192251 0.039288 0.500000 
120 1 0.201955 0.056468 0.500000 
121 1 0.212274 0.039967 0.500000 
122 1 0.221979 0.057168 0.500000 
123 1 0.232293 0.040654 0.500000 
124 1 0.241990 0.057873 0.500000 
125 1 0.252309 0.041345 0.500000 
126 1 0.261998 0.058575 0.500000 
127 1 0.272318 0.042042 0.500000 
128 1 0.282000 0.059293 0.500000 
129 1 0.292324 0.042743 0.500000 
130 1 0.301997 0.060006 0.500000 
131 1 0.312323 0.043447 0.500000 
132 1 0.321992 0.060721 0.500000 
133 1 0.332314 0.044150 0.500000 
134 1 0.341977 0.061433 0.500000 
135 1 0.352297 0.044856 0.500000 
136 1 0.361951 0.062145 0.500000 
137 1 0.372273 0.045557 0.500000 
138 1 0.381925 0.062860 0.500000 
139 1 0.392240 0.046254 0.500000 
140 1 0.401881 0.063569 0.500000 
141 1 0.412198 0.046944 0.500000 
142 1 0.421827 0.064258 0.500000 
143 1 0.432147 0.047626 0.500000 
144 1 0.441772 0.064946 0.500000 
145 1 0.452087 0.048297 0.500000 
146 1 0.461698 0.065624 0.500000 
147 1 0.472018 0.048954 0.500000 
148 1 0.481617 0.066284 0.500000 
149 1 0.491940 0.049595 0.500000 
150 1 0.501540 0.066919 0.500000 
151 1 0.511855 0.050220 0.500000 
152 1 0.521456 0.067544 0.500000 
153 1 0.531762 0.050823 0.500000 
154 1 0.541360 0.068149 0.500000 
155 1 0.551663 0.051406 0.500000 
156 1 0.561258 0.068722 0.500000 
157 1 0.571560 0.051966 0.500000 
158 1 0.581152 0.069281 0.500000 
159 1 0.591452 0.052503 0.500000 
160 1 0.601044 0.069804 0.500000 
161 1 0.611341 0.053013 0.500000 
162 1 0.620935 0.070303 0.500000 
163 1 0.631230 0.053499 0.500000 
164 1 0.640824 0.070772 0.500000 
165 1 0.651117 0.053960 0.500000 
166 1 0.660720 0.071220 0.500000 
167 1 0.671006 0.054396 0.500000 
168 1 0.680622 0.071646 0.500000 
169 1 0.690897 0.054806 0.500000 
170 1 0.700529 0.072042 0.500000 
171 1 0.710789 0.055192 0.500000 
172 1 0.720436 0.072413 0.500000 
173 1 0.730685 0.055554 0.500000 
174 1 0.740344 0.072759 0.500000 
175 1 0.750586 0.055894 0.500000 
176 1 0.760260 0.073095 0.500000 
177 1 0.770490 0.056213 0.500000 
178 1 0.780188 0.073402 0.500000 
179 1 0.790400 0.056511 0.500000 
180 1 0.800116 0.073682 0.500000 
181 1 0.810316 0.056789 0.500000 
182 1 0.820033 0.073955 0.500000 
183 1 0.830238 0.057049 0.500000 
184 1 0.839954 0.074201 0.500000 
185 1 0.850164 0.057294 0.500000 
186 1 0.859894 0.074432 0.500000 
187 1 0.870095 0.057522 0.500000 
188 1 0.879835 0.074654 0.500000 
189 1 0.890032 0.057734 0.500000 
190 1 0.899780 0.074849 0.500000 
191 1 0.909975 0.057934 0.500000 
192 1 0.919725 0.075045 0.500000 
193 1 0.929922 0.058120 0.500000 
194 1 0.939670 0.075217 0.500000 
195 1 0.949875 0.058294 0.500000 
196 1 0.959621 0.075390 0.500000 
197 1 0.969833 0.058458 0.500000 
198 1 0.979588 0.075542 0.500000 
199 1 0.989796 0.058613 0.500000 
200 1 0.999557 0.075685 0.500000 
201 1 0.011275 0.067077 0.500000 
202 1 0.020924 0.084144 0.500000 
203 1 0.031308 0.067688 0.500000 
204 1 0.040959 0.084763 0.500000 
205 1 0.051342 0.068307 0.500000 
206 1 0.060994 0.085390 0.500000 
207 1 0.071376 0.068936 0.500000 
208 1 0.081046 0.086036 0.500000 
209 1 0.091434 0.069583 0.500000 
210 1 0.101090 0.086714 0.500000 
211 1 0.111472 0.070259 0.500000 
212 1 0.121143 0.087388 0.500000 
213 1 0.131511 0.070922 0.500000 
214 1 0.141197 0.088061 0.500000 
215 1 0.151562 0.071599 0.500000 
216 1 0.161239 0.088768 0.500000 
217 1 0.171599 0.072296 0.500000 
218 1 0.181283 0.089453 0.500000 
219 1 0.191632 0.072965 0.500000 
220 1 0.201309 0.090157 0.500000 
221 1 0.211653 0.073666 0.500000 
222 1 0.221324 0.090885 0.500000 
223 1 0.231668 0.074392 0.500000 
224 1 0.241347 0.091618 0.500000 
225 1 0.251678 0.075104 0.500000 
226 1 0.261353 0.092355 0.500000 
227 1 0.271673 0.075826 0.500000 
228 1 0.281353 0.093090 0.500000 
229 1 0.291670 0.076553 0.500000 
230 1 0.301343 0.093826 0.500000 
231 1 0.311666 0.077276 0.500000 
232 1 0.321326 0.094558 0.500000 
233 1 0.331659 0.078002 0.500000 
234 1 0.341306 0.095303 0.500000 
235 1 0.351636 0.078729 0.500000 
236 1 0.361275 0.096039 0.500000 
237 1 0.371596 0.079451 0.500000 
238 1 0.381236 0.096769 0.500000 
239 1 0.391551 0.080175 0.500000 
240 1 0.401187 0.097501 0.500000 
241 1 0.411503 0.080886 0.500000 
242 1 0.421127 0.098223 0.500000 
243 1 0.431447 0.081586 0.500000 
244 1 0.441061 0.098940 0.500000 
245 1 0.451380 0.082291 0.500000 
246 1 0.460984 0.099642 0.500000 
247 1 0.471300 0.082965 0.500000 
248 1 0.480900 0.100315 0.500000 
249 1 0.491222 0.083621 0.500000 
250 1 0.500814 0.100979 0.500000 
251 1 0.511137 0.084263 0.500000 
252 1 0.520723 0.101610 0.500000 
253 1 0.531042 0.084880 0.500000 
254 1 0.540629 0.102221 0.500000 
255 1 0.550945 0.085477 0.500000 
256 1 0.560537 0.102812 0.500000 
257 1 0.570843 0.086048 0.500000 
258 1 0.580441 0.103376 0.500000 
259 1 0.590742 0.086594 0.500000 
260 1 0.600350 0.103901 0.500000 
261 1 0.610639 0.087100 0.500000 
262 1 0.620252 0.104399 0.500000 
263 1 0.630538 0.087588 0.500000 
264 1 0.640162 0.104864 0.500000 
265 1 0.650444 0.088044 0.500000 
266 1 0.660075 0.105318 0.500000 
267 1 0.670346 0.088478 0.500000 
268 1 0.679989 0.105733 0.500000 
269 1 0.690253 0.088888 0.500000 
270 1 0.699915 0.106126 0.500000 
271 1 0.710163 0.089267 0.500000 
272 1 0.719844 0.106487 0.500000 
273 1 0.730088 0.089625 0.500000 
274 1 0.739769 0.106836 0.500000 
275 1 0.750014 0.089964 0.500000 
276 1 0.759700 0.107161 0.500000 
277 1 0.769948 0.090285 0.500000 
278 1 0.779642 0.107467 0.500000 
279 1 0.789880 0.090579 0.500000 
280 1 0.799580 0.107746 0.500000 
281 1 0.809810 0.090853 0.500000 
282 1 0.819515 0.108005 0.500000 
283 1 0.829749 0.091101 0.500000 
284 1 0.839457 0.108242 0.500000 
285 1 0.849695 0.091332 0.500000 
286 1 0.859404 0.108475 0.500000 
287 1 0.869637 0.091570 0.500000 
288 1 0.879355 0.108694 0.500000 
289 1 0.889576 0.091769 0.500000 
290 1 0.899301 0.108878 0.500000 
291 1 0.909521 0.091959 0.500000 
292 1 0.919254 0.109068 0.500000 
293 1 0.929470 0.092147 0.500000 
294 1 0.939209 0.109254 0.500000 
295 1 0.949407 0.092323 0.500000 
296 1 0.959160 0.109410 0.500000 
297 1 0.969375 0.092475 0.500000 
298 1 0.979136 0.109550 0.500000 
299 1 0.989349 0.092617 0.500000 
300 1 0.999117 0.109681 0.500000 
301 1 0.010532 0.100598 0.500000 
302 1 0.020165 0.117663 0.500000 
303 1 0.030566 0.101214 0.500000 
304 1 0.040201 0.118287 0.500000 
305 1 0.050602 0.101839 0.500000 
306 1 0.060239 0.118920 0.500000 
307 1 0.070640 0.102476 0.500000 
308 1 0.080295 0.119598 0.500000 
309 1 0.090694 0.103160 0.500000 
310 1 0.100354 0.120270 0.500000 
311 1 0.110763 0.103835 0.500000 
312 1 0.120419 0.120963 0.500000 
313 1 0.130824 0.104524 0.500000 
314 1 0.140472 0.121686 0.500000 
315 1 0.150864 0.105228 0.500000 
316 1 0.160531 0.122381 0.500000 
317 1 0.170919 0.105924 0.500000 
318 1 0.180574 0.123109 0.500000 
319 1 0.190954 0.106639 0.500000 
320 1 0.200606 0.123855 0.500000 
321 1 0.210976 0.107375 0.500000 
322 1 0.220639 0.124596 0.500000 
323 1 0.230997 0.108112 0.500000 
324 1 0.240663 0.125361 0.500000 
325 1 0.251015 0.108868 0.500000 
326 1 0.260678 0.126122 0.500000 
327 1 0.271018 0.109608 0.500000 
328 1 0.280678 0.126872 0.500000 
329 1 0.291016 0.110361 0.500000 
330 1 0.300669 0.127645 0.500000 
331 1 0.311004 0.111115 0.500000 
332 1 0.320654 0.128415 0.500000 
333 1 0.330983 0.111863 0.500000 
334 1 0.340629 0.129183 0.500000 
335 1 0.350961 0.112621 0.500000 
336 1 0.360598 0.129951 0.500000 
337 1 0.370922 0.113360 0.500000 
338 1 0.380543 0.130711 0.500000 
339 1 0.390871 0.114108 0.500000 
340 1 0.400482 0.131473 0.500000 
341 1 0.410814 0.114855 0.500000 
342 1 0.420420 0.132214 0.500000 
343 1 0.430748 0.115578 0.500000 
344 1 0.440349 0.132950 0.500000 
345 1 0.450672 0.116303 0.500000 
346 1 0.460268 0.133676 0.500000 
347 1 0.470582 0.116999 0.500000 
348 1 0.480176 0.134374 0.500000 
349 1 0.490492 0.117684 0.500000 
350 1 0.500095 0.135051 0.500000 
351 1 0.510409 0.118333 0.500000 
352 1 0.520006 0.135693 0.500000 
353 1 0.530323 0.118961 0.500000 
354 1 0.539912 0.136321 0.500000 
355 1 0.550235 0.119572 0.500000 
356 1 0.559818 0.136919 0.500000 
357 1 0.570145 0.120157 0.500000 
358 1 0.579732 0.137489 0.500000 
359 1 0.590052 0.120694 0.500000 
360 1 0.599646 0.138016 0.500000 
361 1 0.609958 0.121216 0.500000 
362 1 0.619572 0.138513 0.500000 
363 1 0.629869 0.121693 0.500000 
364 1 0.639496 0.138982 0.500000 
365 1 0.649785 0.122150 0.500000 
366 1 0.659416 0.139431 0.500000 
367 1 0.669704 0.122581 0.500000 
368 1 0.679339 0.139829 0.500000 
369 1 0.689632 0.122972 0.500000 
370 1 0.699275 0.140207 0.500000 
371 1 0.709569 0.123347 0.500000 
372 1 0.719216 0.140572 0.500000 
373 1 0.729506 0.123709 0.500000 
374 1 0.739162 0.140923 0.500000 
375 1 0.749438 0.124045 0.500000 
376 1 0.759105 0.141239 0.500000 
377 1 0.769377 0.124348 0.500000 
378 1 0.779052 0.141530 0.500000 
379 1 0.789320 0.124635 0.500000 
380 1 0.799002 0.141802 0.500000 
381 1 0.809265 0.124907 0.500000 
382 1 0.818959 0.142061 0.500000 
383 1 0.829214 0.125153 0.500000 
384 1 0.838909 0.142297 0.500000 
385 1 0.849165 0.125390 0.500000 
386 1 0.858867 0.142527 0.500000 
387 1 0.869114 0.125613 0.500000 
388 1 0.878834 0.142729 0.500000 
389 1 0.889070 0.125806 0.500000 
390 1 0.898799 0.142924 0.500000 
391 1 0.909023 0.125993 0.500000 
392 1 0.918765 0.143105 0.500000 
393 1 0.928984 0.126179 0.500000 
394 1 0.938734 0.143278 0.500000 
395 1 0.948940 0.126349 0.500000 
396 1 0.958701 0.143428 0.500000 
397 1 0.968919 0.126487 0.500000 
398 1 0.978689 0.143555 0.500000 
399 1 0.988905 0.126616 0.500000 
400 1 0.998682 0.143674 0.500000 
401 1 0.009754 0.134110 0.500000 
402 1 0.019367 0.151171 0.500000 
403 1 0.029790 0.134729 0.500000 
404 1 0.039403 0.151799 0.500000 
405 1 0.049825 0.135360 0.500000 
406 1 0.059442 0.152437 0.500000 
407 1 0.069865 0.136003 0.500000 
408 1 0.079507 0.153113 0.500000 
409 1 0.089948 0.136706 0.500000 
410 1 0.099579 0.153814 0.500000 
411 1 0.110011 0.137391 0.500000 
412 1 0.119637 0.154532 0.500000 
413 1 0.130059 0.138115 0.500000 
414 1 0.139705 0.155244 0.500000 
415 1 0.150124 0.138823 0.500000 
416 1 0.159762 0.155981 0.500000 
417 1 0.170173 0.139556 0.500000 
418 1 0.179810 0.156736 0.500000 
419 1 0.190217 0.140310 0.500000 
420 1 0.199857 0.157502 0.500000 
421 1 0.210258 0.141060 0.500000 
422 1 0.219886 0.158286 0.500000 
423 1 0.230281 0.141831 0.500000 
424 1 0.239912 0.159067 0.500000 
425 1 0.250310 0.142614 0.500000 
426 1 0.259944 0.159871 0.500000 
427 1 0.270324 0.143377 0.500000 
428 1 0.279953 0.160663 0.500000 
429 1 0.290320 0.144159 0.500000 
430 1 0.299955 0.161459 0.500000 
431 1 0.310315 0.144946 0.500000 
432 1 0.319948 0.162261 0.500000 
433 1 0.330299 0.145730 0.500000 
434 1 0.339927 0.163064 0.500000 
435 1 0.350270 0.146517 0.500000 
436 1 0.359887 0.163870 0.500000 
437 1 0.370224 0.147304 0.500000 
438 1 0.379835 0.164665 0.500000 
439 1 0.390169 0.148080 0.500000 
440 1 0.399790 0.165452 0.500000 
441 1 0.410113 0.148842 0.500000 
442 1 0.419727 0.166233 0.500000 
443 1 0.430043 0.149595 0.500000 
444 1 0.439649 0.166995 0.500000 
445 1 0.449968 0.150340 0.500000 
446 1 0.459570 0.167749 0.500000 
447 1 0.469884 0.151073 0.500000 
448 1 0.479487 0.168475 0.500000 
449 1 0.489792 0.151760 0.500000 
450 1 0.499401 0.169153 0.500000 
451 1 0.509704 0.152427 0.500000 
452 1 0.519308 0.169810 0.500000 
453 1 0.529608 0.153064 0.500000 
454 1 0.539214 0.170437 0.500000 
455 1 0.549516 0.153677 0.500000 
456 1 0.559121 0.171033 0.500000 
457 1 0.569425 0.154263 0.500000 
458 1 0.579041 0.171598 0.500000 
459 1 0.589345 0.154812 0.500000 
460 1 0.598964 0.172132 0.500000 
461 1 0.609271 0.155316 0.500000 
462 1 0.618890 0.172625 0.500000 
463 1 0.629201 0.155805 0.500000 
464 1 0.638818 0.173103 0.500000 
465 1 0.649126 0.156267 0.500000 
466 1 0.658751 0.173540 0.500000 
467 1 0.669059 0.156694 0.500000 
468 1 0.678699 0.173942 0.500000 
469 1 0.689003 0.157075 0.500000 
470 1 0.698643 0.174326 0.500000 
471 1 0.708947 0.157449 0.500000 
472 1 0.718593 0.174686 0.500000 
473 1 0.728888 0.157795 0.500000 
474 1 0.738548 0.175020 0.500000 
475 1 0.748834 0.158131 0.500000 
476 1 0.758507 0.175325 0.500000 
477 1 0.768787 0.158428 0.500000 
478 1 0.778471 0.175609 0.500000 
479 1 0.788745 0.158705 0.500000 
480 1 0.798436 0.175870 0.500000 
481 1 0.808700 0.158961 0.500000 
482 1 0.818402 0.176120 0.500000 
483 1 0.828659 0.159211 0.500000 
484 1 0.838377 0.176348 0.500000 
485 1 0.848621 0.159432 0.500000 
486 1 0.858347 0.176558 0.500000 
487 1 0.868589 0.159641 0.500000 
488 1 0.878315 0.176759 0.500000 
489 1 0.888561 0.159844 0.500000 
490 1 0.898290 0.176958 0.500000 
491 1 0.908535 0.160037 0.500000 
492 1 0.918280 0.177141 0.500000 
493 1 0.928509 0.160210 0.500000 
494 1 0.938267 0.177304 0.500000 
495 1 0.948477 0.160370 0.500000 
496 1 0.958249 0.177440 0.500000 
497 1 0.968470 0.160496 0.500000 
498 1 0.978251 0.177553 0.500000 
499 1 0.988467 0.160611 0.500000 
500 1 0.998258 0.177659 0.500000 
501 1 0.008938 0.167610 0.500000 
502 1 0.018532 0.184668 0.500000 
503 1 0.028972 0.168234 0.500000 
504 1 0.038566 0.185299 0.500000 
505 1 0.049008 0.168868 0.500000 
506 1 0.058602 0.185942 0.500000 
507 1 0.069047 0.169517 0.500000 
508 1 0.078666 0.186626 0.500000 
509 1 0.089126 0.170224 0.500000 
510 1 0.098739 0.187352 0.500000 
511 1 0.109197 0.170944 0.500000 
512 1 0.118816 0.188073 0.500000 
513 1 0.129273 0.171660 0.500000 
514 1 0.138879 0.188819 0.500000 
515 1 0.149330 0.172400 0.500000 
516 1 0.158931 0.189578 0.500000 
517 1 0.169375 0.173156 0.500000 
518 1 0.178983 0.190347 0.500000 
519 1 0.189430 0.173929 0.500000 
520 1 0.199033 0.191152 0.500000 
521 1 0.209476 0.174727 0.500000 
522 1 0.219096 0.191941 0.500000 
523 1 0.229518 0.175514 0.500000 
524 1 0.239133 0.192760 0.500000 
525 1 0.249544 0.176322 0.500000 
526 1 0.259162 0.193592 0.500000 
527 1 0.269572 0.177149 0.500000 
528 1 0.279192 0.194427 0.500000 
529 1 0.289585 0.177958 0.500000 
530 1 0.299202 0.195263 0.500000 
531 1 0.309580 0.178777 0.500000 
532 1 0.319202 0.196101 0.500000 
533 1 0.329566 0.179595 0.500000 
534 1 0.339186 0.196947 0.500000 
535 1 0.349534 0.180413 0.500000 
536 1 0.359154 0.197786 0.500000 
537 1 0.369495 0.181236 0.500000 
538 1 0.379115 0.198620 0.500000 
539 1 0.389446 0.182036 0.500000 
540 1 0.399058 0.199447 0.500000 
541 1 0.409391 0.182850 0.500000 
542 1 0.418999 0.200273 0.500000 
543 1 0.429320 0.183644 0.500000 
544 1 0.438931 0.201058 0.500000 
545 1 0.449243 0.184403 0.500000 
546 1 0.458845 0.201840 0.500000 
547 1 0.469156 0.185164 0.500000 
548 1 0.478763 0.202586 0.500000 
549 1 0.489074 0.185871 0.500000 
550 1 0.498677 0.203285 0.500000 
551 1 0.508992 0.186555 0.500000 
552 1 0.518595 0.203963 0.500000 
553 1 0.528904 0.187203 0.500000 
554 1 0.538510 0.204607 0.500000 
555 1 0.548814 0.187818 0.500000 
556 1 0.558424 0.205200 0.500000 
557 1 0.568727 0.188392 0.500000 
558 1 0.578339 0.205764 0.500000 
559 1 0.588646 0.188947 0.500000 
560 1 0.598268 0.206282 0.500000 
561 1 0.608581 0.189458 0.500000 
562 1 0.618206 0.206784 0.500000 
563 1 0.628513 0.189942 0.500000 
564 1 0.638152 0.207249 0.500000 
565 1 0.648451 0.190389 0.500000 
566 1 0.658101 0.207661 0.500000 
567 1 0.668400 0.190800 0.500000 
568 1 0.678052 0.208065 0.500000 
569 1 0.688349 0.191197 0.500000 
570 1 0.698008 0.208439 0.500000 
571 1 0.708304 0.191568 0.500000 
572 1 0.717971 0.208792 0.500000 
573 1 0.728262 0.191907 0.500000 
574 1 0.737941 0.209117 0.500000 
575 1 0.748228 0.192222 0.500000 
576 1 0.757919 0.209410 0.500000 
577 1 0.768198 0.192507 0.500000 
578 1 0.777896 0.209684 0.500000 
579 1 0.788169 0.192780 0.500000 
580 1 0.797878 0.209944 0.500000 
581 1 0.808141 0.193034 0.500000 
582 1 0.817855 0.210196 0.500000 
583 1 0.828110 0.193272 0.500000 
584 1 0.837833 0.210418 0.500000 
585 1 0.848083 0.193484 0.500000 
586 1 0.857817 0.210611 0.500000 
587 1 0.868064 0.193684 0.500000 
588 1 0.877809 0.210803 0.500000 
589 1 0.888045 0.193879 0.500000 
590 1 0.897802 0.210981 0.500000 
591 1 0.908032 0.194056 0.500000 
592 1 0.917793 0.211151 0.500000 
593 1 0.928027 0.194231 0.500000 
594 1 0.937802 0.211311 0.500000 
595 1 0.948021 0.194385 0.500000 
596 1 0.957807 0.211443 0.500000 
597 1 0.968031 0.194496 0.500000 
598 1 0.977825 0.211543 0.500000 
599 1 0.988043 0.194599 0.500000 
600 1 0.997847 0.211634 0.500000 
601 1 0.008083 0.201103 0.500000 
602 1 0.017654 0.218157 0.500000 
603 1 0.028113 0.201727 0.500000 
604 1 0.037684 0.218790 0.500000 
605 1 0.048147 0.202367 0.500000 
606 1 0.057718 0.219436 0.500000 
607 1 0.068185 0.203017 0.500000 
608 1 0.077778 0.220126 0.500000 
609 1 0.088256 0.203745 0.500000 
610 1 0.097846 0.220864 0.500000 
611 1 0.108331 0.204478 0.500000 
612 1 0.117913 0.221610 0.500000 
613 1 0.128396 0.205223 0.500000 
614 1 0.137977 0.222368 0.500000 
615 1 0.148459 0.205979 0.500000 
616 1 0.158039 0.223134 0.500000 
617 1 0.168519 0.206749 0.500000 
618 1 0.178094 0.223937 0.500000 
619 1 0.188568 0.207554 0.500000 
620 1 0.198162 0.224742 0.500000 
621 1 0.208637 0.208350 0.500000 
622 1 0.218227 0.225574 0.500000 
623 1 0.228693 0.209179 0.500000 
624 1 0.238291 0.226429 0.500000 
625 1 0.248740 0.210018 0.500000 
626 1 0.258342 0.227279 0.500000 
627 1 0.268784 0.210864 0.500000 
628 1 0.278377 0.228159 0.500000 
629 1 0.288807 0.211722 0.500000 
630 1 0.298401 0.229027 0.500000 
631 1 0.308818 0.212574 0.500000 
632 1 0.318415 0.229914 0.500000 
633 1 0.328813 0.213447 0.500000 
634 1 0.338422 0.230813 0.500000 
635 1 0.348793 0.214317 0.500000 
636 1 0.358400 0.231707 0.500000 
637 1 0.368756 0.215174 0.500000 
638 1 0.378361 0.232586 0.500000 
639 1 0.388707 0.216032 0.500000 
640 1 0.398315 0.233462 0.500000 
641 1 0.408655 0.216871 0.500000 
642 1 0.418253 0.234319 0.500000 
643 1 0.428602 0.217704 0.500000 
644 1 0.438184 0.235172 0.500000 
645 1 0.448519 0.218512 0.500000 
646 1 0.458105 0.235979 0.500000 
647 1 0.468433 0.219282 0.500000 
648 1 0.478016 0.236736 0.500000 
649 1 0.488349 0.220020 0.500000 
650 1 0.497926 0.237471 0.500000 
651 1 0.508256 0.220714 0.500000 
652 1 0.517841 0.238154 0.500000 
653 1 0.528170 0.221380 0.500000 
654 1 0.537768 0.238790 0.500000 
655 1 0.548095 0.221996 0.500000 
656 1 0.557697 0.239388 0.500000 
657 1 0.568017 0.222579 0.500000 
658 1 0.577629 0.239947 0.500000 
659 1 0.587944 0.223110 0.500000 
660 1 0.597559 0.240468 0.500000 
661 1 0.607877 0.223622 0.500000 
662 1 0.617503 0.240949 0.500000 
663 1 0.627826 0.224095 0.500000 
664 1 0.637468 0.241395 0.500000 
665 1 0.647786 0.224529 0.500000 
666 1 0.657438 0.241810 0.500000 
667 1 0.667741 0.224935 0.500000 
668 1 0.677405 0.242205 0.500000 
669 1 0.687703 0.225323 0.500000 
670 1 0.697382 0.242575 0.500000 
671 1 0.707667 0.225678 0.500000 
672 1 0.717357 0.242911 0.500000 
673 1 0.727642 0.226005 0.500000 
674 1 0.737333 0.243213 0.500000 
675 1 0.747628 0.226310 0.500000 
676 1 0.757317 0.243501 0.500000 
677 1 0.767616 0.226596 0.500000 
678 1 0.777311 0.243778 0.500000 
679 1 0.787602 0.226857 0.500000 
680 1 0.797308 0.244026 0.500000 
681 1 0.807593 0.227106 0.500000 
682 1 0.817306 0.244254 0.500000 
683 1 0.827588 0.227346 0.500000 
684 1 0.837312 0.244477 0.500000 
685 1 0.847580 0.227547 0.500000 
686 1 0.857310 0.244670 0.500000 
687 1 0.867573 0.227735 0.500000 
688 1 0.877320 0.244850 0.500000 
689 1 0.887568 0.227914 0.500000 
690 1 0.897324 0.245015 0.500000 
691 1 0.907564 0.228084 0.500000 
692 1 0.917337 0.245164 0.500000 
693 1 0.927572 0.228233 0.500000 
694 1 0.937358 0.245312 0.500000 
695 1 0.947580 0.228392 0.500000 
696 1 0.957383 0.245436 0.500000 
697 1 0.967605 0.228489 0.500000 
698 1 0.977417 0.245522 0.500000 
699 1 0.987634 0.228577 0.500000 
700 1 0.997455 0.245600 0.500000 
701 1 0.007189 0.234587 0.500000 
702 1 0.016737 0.251640 0.500000 
703 1 0.027214 0.235215 0.500000 
704 1 0.036760 0.252274 0.500000 
705 1 0.047243 0.235854 0.500000 
706 1 0.056787 0.252921 0.500000 
707 1 0.067275 0.236508 0.500000 
708 1 0.076839 0.253618 0.500000 
709 1 0.087336 0.237236 0.500000 
710 1 0.096895 0.254349 0.500000 
711 1 0.107408 0.237980 0.500000 
712 1 0.116956 0.255110 0.500000 
713 1 0.127479 0.238745 0.500000 
714 1 0.137026 0.255894 0.500000 
715 1 0.147545 0.239521 0.500000 
716 1 0.157095 0.256686 0.500000 
717 1 0.167605 0.240312 0.500000 
718 1 0.177163 0.257489 0.500000 
719 1 0.187678 0.241124 0.500000 
720 1 0.197238 0.258318 0.500000 
721 1 0.207744 0.241953 0.500000 
722 1 0.217313 0.259170 0.500000 
723 1 0.227810 0.242812 0.500000 
724 1 0.237386 0.260053 0.500000 
725 1 0.247877 0.243679 0.500000 
726 1 0.257439 0.260955 0.500000 
727 1 0.267919 0.244569 0.500000 
728 1 0.277496 0.261856 0.500000 
729 1 0.287961 0.245459 0.500000 
730 1 0.297534 0.262784 0.500000 
731 1 0.307987 0.246362 0.500000 
732 1 0.317566 0.263714 0.500000 
733 1 0.328010 0.247273 0.500000 
734 1 0.337584 0.264662 0.500000 
735 1 0.348015 0.248201 0.500000 
736 1 0.357580 0.265609 0.500000 
737 1 0.367998 0.249118 0.500000 
738 1 0.377561 0.266560 0.500000 
739 1 0.387954 0.250024 0.500000 
740 1 0.397524 0.267491 0.500000 
741 1 0.407903 0.250924 0.500000 
742 1 0.417476 0.268412 0.500000 
743 1 0.427835 0.251800 0.500000 
744 1 0.437418 0.269290 0.500000 
745 1 0.447765 0.252645 0.500000 
746 1 0.457347 0.270137 0.500000 
747 1 0.467690 0.253451 0.500000 
748 1 0.477263 0.270945 0.500000 
749 1 0.487602 0.254216 0.500000 
750 1 0.497180 0.271691 0.500000 
751 1 0.507519 0.254925 0.500000 
752 1 0.517101 0.272380 0.500000 
753 1 0.527445 0.255587 0.500000 
754 1 0.537027 0.273020 0.500000 
755 1 0.547371 0.256205 0.500000 
756 1 0.556962 0.273614 0.500000 
757 1 0.567299 0.256783 0.500000 
758 1 0.576900 0.274177 0.500000 
759 1 0.587228 0.257318 0.500000 
760 1 0.596845 0.274680 0.500000 
761 1 0.607176 0.257816 0.500000 
762 1 0.616807 0.275145 0.500000 
763 1 0.627139 0.258263 0.500000 
764 1 0.636786 0.275566 0.500000 
765 1 0.647110 0.258687 0.500000 
766 1 0.656762 0.275975 0.500000 
767 1 0.667076 0.259089 0.500000 
768 1 0.676745 0.276353 0.500000 
769 1 0.687060 0.259463 0.500000 
770 1 0.696735 0.276716 0.500000 
771 1 0.707048 0.259817 0.500000 
772 1 0.716739 0.277034 0.500000 
773 1 0.727042 0.260127 0.500000 
774 1 0.736742 0.277330 0.500000 
775 1 0.747033 0.260414 0.500000 
776 1 0.756749 0.277602 0.500000 
777 1 0.767026 0.260691 0.500000 
778 1 0.776760 0.277859 0.500000 
779 1 0.787031 0.260944 0.500000 
780 1 0.796774 0.278101 0.500000 
781 1 0.807039 0.261178 0.500000 
782 1 0.816789 0.278318 0.500000 
783 1 0.827049 0.261388 0.500000 
784 1 0.836809 0.278515 0.500000 
785 1 0.847065 0.261603 0.500000 
786 1 0.856836 0.278708 0.500000 
787 1 0.867082 0.261774 0.500000 
788 1 0.876861 0.278879 0.500000 
789 1 0.887097 0.261951 0.500000 
790 1 0.896889 0.279037 0.500000 
791 1 0.907109 0.262096 0.500000 
792 1 0.916916 0.279168 0.500000 
793 1 0.927133 0.262235 0.500000 
794 1 0.936944 0.279310 0.500000 
795 1 0.947159 0.262387 0.500000 
796 1 0.956982 0.279417 0.500000 
797 1 0.967200 0.262468 0.500000 
798 1 0.977036 0.279488 0.500000 
799 1 0.987245 0.262544 0.500000 
800 1 0.997089 0.279555 0.500000 
801 1 0.006256 0.268068 0.500000 
802 1 0.015779 0.285121 0.500000 
803 1 0.026272 0.268696 0.500000 
804 1 0.035792 0.285753 0.500000 
805 1 0.046292 0.269335 0.500000 
806 1 0.055810 0.286400 0.500000 
807 1 0.066319 0.269991 0.500000 
808 1 0.075850 0.287087 0.500000 
809 1 0.086382 0.270726 0.500000 
810 1 0.095903 0.287845 0.500000 
811 1 0.106433 0.271479 0.500000 
812 1 0.115960 0.288601 0.500000 
813 1 0.126494 0.272247 0.500000 
814 1 0.136022 0.289380 0.500000 
815 1 0.146563 0.273040 0.500000 
816 1 0.156097 0.290179 0.500000 
817 1 0.166637 0.273841 0.500000 
818 1 0.176165 0.291004 0.500000 
819 1 0.186711 0.274670 0.500000 
820 1 0.196238 0.291857 0.500000 
821 1 0.206785 0.275517 0.500000 
822 1 0.216317 0.292732 0.500000 
823 1 0.226856 0.276398 0.500000 
824 1 0.236393 0.293647 0.500000 
825 1 0.246925 0.277316 0.500000 
826 1 0.256476 0.294572 0.500000 
827 1 0.266995 0.278223 0.500000 
828 1 0.276544 0.295519 0.500000 
829 1 0.287053 0.279167 0.500000 
830 1 0.296603 0.296498 0.500000 
831 1 0.307097 0.280122 0.500000 
832 1 0.316651 0.297485 0.500000 
833 1 0.327135 0.281091 0.500000 
834 1 0.336687 0.298502 0.500000 
835 1 0.347152 0.282078 0.500000 
836 1 0.356710 0.299512 0.500000 
837 1 0.367145 0.283056 0.500000 
838 1 0.376706 0.300528 0.500000 
839 1 0.387122 0.284030 0.500000 
840 1 0.396684 0.301531 0.500000 
841 1 0.407090 0.284988 0.500000 
842 1 0.416651 0.302508 0.500000 
843 1 0.427046 0.285911 0.500000 
844 1 0.436596 0.303445 0.500000 
845 1 0.446983 0.286803 0.500000 
846 1 0.456525 0.304351 0.500000 
847 1 0.466907 0.287658 0.500000 
848 1 0.476453 0.305183 0.500000 
849 1 0.486830 0.288441 0.500000 
850 1 0.496376 0.305955 0.500000 
851 1 0.506752 0.289168 0.500000 
852 1 0.516310 0.306655 0.500000 
853 1 0.526680 0.289838 0.500000 
854 1 0.536248 0.307287 0.500000 
855 1 0.546620 0.290451 0.500000 
856 1 0.556197 0.307884 0.500000 
857 1 0.566561 0.291029 0.500000 
858 1 0.576166 0.308412 0.500000 
859 1 0.586521 0.291552 0.500000 
860 1 0.596141 0.308916 0.500000 
861 1 0.606480 0.292030 0.500000 
862 1 0.616121 0.309357 0.500000 
863 1 0.626454 0.292456 0.500000 
864 1 0.636100 0.309775 0.500000 
865 1 0.646435 0.292873 0.500000 
866 1 0.656102 0.310157 0.500000 
867 1 0.666428 0.293249 0.500000 
868 1 0.676103 0.310530 0.500000 
869 1 0.686416 0.293619 0.500000 
870 1 0.696116 0.310863 0.500000 
871 1 0.706419 0.293942 0.500000 
872 1 0.716131 0.311167 0.500000 
873 1 0.726429 0.294245 0.500000 
874 1 0.736156 0.311441 0.500000 
875 1 0.746448 0.294520 0.500000 
876 1 0.756186 0.311707 0.500000 
877 1 0.766463 0.294782 0.500000 
878 1 0.776222 0.311947 0.500000 
879 1 0.786486 0.295018 0.500000 
880 1 0.796250 0.312167 0.500000 
881 1 0.806515 0.295244 0.500000 