ITEM: TIMESTEP
1100
ITEM: NUMBER OF ATOMS
2850
ITEM: BOX BOUNDS ss ss pp
-28.0536 28.3253 
-28.9988 28.9984 
-0.5 0.5 
ITEM: ATOMS id type xs ys zs
1 1 0.012661 0.000000 0.500000 
2 1 0.022340 0.017073 0.500000 
3 1 0.032688 0.000597 0.500000 
4 1 0.042369 0.017677 0.500000 
5 1 0.052715 0.001202 0.500000 
6 1 0.062397 0.018289 0.500000 
7 1 0.072742 0.001814 0.500000 
8 1 0.082426 0.018911 0.500000 
9 1 0.092767 0.002433 0.500000 
10 1 0.102455 0.019539 0.500000 
11 1 0.112794 0.003060 0.500000 
12 1 0.122484 0.020177 0.500000 
13 1 0.132817 0.003697 0.500000 
14 1 0.142511 0.020822 0.500000 
15 1 0.152841 0.004338 0.500000 
16 1 0.162536 0.021475 0.500000 
17 1 0.172861 0.004988 0.500000 
18 1 0.182559 0.022136 0.500000 
19 1 0.192879 0.005643 0.500000 
20 1 0.202579 0.022803 0.500000 
21 1 0.212895 0.006305 0.500000 
22 1 0.222596 0.023475 0.500000 
23 1 0.232906 0.006973 0.500000 
24 1 0.242610 0.024155 0.500000 
25 1 0.252912 0.007645 0.500000 
26 1 0.262618 0.024839 0.500000 
27 1 0.272914 0.008319 0.500000 
28 1 0.282622 0.025527 0.500000 
29 1 0.292911 0.008997 0.500000 
30 1 0.302619 0.026217 0.500000 
31 1 0.312901 0.009676 0.500000 
32 1 0.322610 0.026908 0.500000 
33 1 0.332885 0.010356 0.500000 
34 1 0.342593 0.027600 0.500000 
35 1 0.352861 0.011033 0.500000 
36 1 0.362570 0.028289 0.500000 
37 1 0.372830 0.011707 0.500000 
38 1 0.382537 0.028974 0.500000 
39 1 0.392791 0.012376 0.500000 
40 1 0.402497 0.029655 0.500000 
41 1 0.412744 0.013039 0.500000 
42 1 0.422448 0.030326 0.500000 
43 1 0.432688 0.013694 0.500000 
44 1 0.442390 0.030989 0.500000 
45 1 0.452624 0.014337 0.500000 
46 1 0.462324 0.031639 0.500000 
47 1 0.472553 0.014968 0.500000 
48 1 0.482250 0.032276 0.500000 
49 1 0.492474 0.015584 0.500000 
50 1 0.502167 0.032896 0.500000 
51 1 0.512388 0.016184 0.500000 
52 1 0.522078 0.033498 0.500000 
53 1 0.532295 0.016766 0.500000 
54 1 0.541983 0.034081 0.500000 
55 1 0.552198 0.017330 0.500000 
56 1 0.561882 0.034643 0.500000 
57 1 0.572095 0.017873 0.500000 
58 1 0.581777 0.035184 0.500000 
59 1 0.591989 0.018396 0.500000 
60 1 0.601668 0.035702 0.500000 
61 1 0.611880 0.018896 0.500000 
62 1 0.621558 0.036195 0.500000 
63 1 0.631769 0.019373 0.500000 
64 1 0.641446 0.036666 0.500000 
65 1 0.651657 0.019829 0.500000 
66 1 0.661334 0.037110 0.500000 
67 1 0.671546 0.020261 0.500000 
68 1 0.681223 0.037533 0.500000 
69 1 0.691436 0.020670 0.500000 
70 1 0.701115 0.037931 0.500000 
71 1 0.711328 0.021058 0.500000 
72 1 0.721007 0.038307 0.500000 
73 1 0.731222 0.021423 0.500000 
74 1 0.740905 0.038660 0.500000 
75 1 0.751120 0.021768 0.500000 
76 1 0.760806 0.038993 0.500000 
77 1 0.771021 0.022094 0.500000 
78 1 0.780711 0.039305 0.500000 
79 1 0.790927 0.022399 0.500000 
80 1 0.800620 0.039597 0.500000 
81 1 0.810837 0.022687 0.500000 
82 1 0.820536 0.039873 0.500000 
83 1 0.830751 0.022958 0.500000 
84 1 0.840456 0.040130 0.500000 
85 1 0.850671 0.023211 0.500000 
86 1 0.860382 0.040369 0.500000 
87 1 0.870595 0.023449 0.500000 
88 1 0.880312 0.040595 0.500000 
89 1 0.890525 0.023674 0.500000 
90 1 0.900248 0.040807 0.500000 
91 1 0.910459 0.023884 0.500000 
92 1 0.920188 0.041005 0.500000 
93 1 0.930398 0.024080 0.500000 
94 1 0.940134 0.041192 0.500000 
95 1 0.950341 0.024267 0.500000 
96 1 0.960084 0.041368 0.500000 
97 1 0.970290 0.024443 0.500000 
98 1 0.980040 0.041531 0.500000 
99 1 0.990243 0.024606 0.500000 
100 1 1.000000 0.041686 0.500000 
101 1 0.011983 0.033545 0.500000 
102 1 0.021650 0.050615 0.500000 
103 1 0.032014 0.034148 0.500000 
104 1 0.041680 0.051227 0.500000 
105 1 0.052044 0.034760 0.500000 
106 1 0.061715 0.051847 0.500000 
107 1 0.072075 0.035381 0.500000 
108 1 0.081770 0.052484 0.500000 
109 1 0.092107 0.036012 0.500000 
110 1 0.101811 0.053142 0.500000 
111 1 0.112138 0.036650 0.500000 
112 1 0.121858 0.053821 0.500000 
113 1 0.132168 0.037297 0.500000 
114 1 0.141890 0.054515 0.500000 
115 1 0.152197 0.037952 0.500000 
116 1 0.161897 0.055178 0.500000 
117 1 0.172226 0.038617 0.500000 
118 1 0.181922 0.055830 0.500000 
119 1 0.192251 0.039288 0.500000 
120 1 0.201967 0.056501 0.500000 
121 1 0.212274 0.039967 0.500000 
122 1 0.222017 0.057191 0.500000 
123 1 0.232293 0.040654 0.500000 
124 1 0.242071 0.057887 0.500000 
125 1 0.252309 0.041345 0.500000 
126 1 0.262114 0.058610 0.500000 
127 1 0.272318 0.042042 0.500000 
128 1 0.282124 0.059345 0.500000 
129 1 0.292324 0.042743 0.500000 
130 1 0.302090 0.060049 0.500000 
131 1 0.312323 0.043447 0.500000 
132 1 0.322067 0.060752 0.500000 
133 1 0.332314 0.044150 0.500000 
134 1 0.342052 0.061483 0.500000 
135 1 0.352297 0.044856 0.500000 
136 1 0.362027 0.062218 0.500000 
137 1 0.372273 0.045557 0.500000 
138 1 0.381993 0.062946 0.500000 
139 1 0.392240 0.046254 0.500000 
140 1 0.401958 0.063650 0.500000 
141 1 0.412198 0.046944 0.500000 
142 1 0.421915 0.064353 0.500000 
143 1 0.432147 0.047626 0.500000 
144 1 0.441836 0.065033 0.500000 
145 1 0.452087 0.048297 0.500000 
146 1 0.461744 0.065674 0.500000 
147 1 0.472018 0.048954 0.500000 
148 1 0.481658 0.066333 0.500000 
149 1 0.491940 0.049595 0.500000 
150 1 0.501564 0.066960 0.500000 
151 1 0.511855 0.050220 0.500000 
152 1 0.521468 0.067567 0.500000 
153 1 0.531762 0.050823 0.500000 
154 1 0.541378 0.068192 0.500000 
155 1 0.551663 0.051406 0.500000 
156 1 0.561297 0.068781 0.500000 
157 1 0.571560 0.051966 0.500000 
158 1 0.581199 0.069364 0.500000 
159 1 0.591452 0.052503 0.500000 
160 1 0.601080 0.069894 0.500000 
161 1 0.611341 0.053013 0.500000 
162 1 0.620963 0.070351 0.500000 
163 1 0.631230 0.053499 0.500000 
164 1 0.640862 0.070793 0.500000 
165 1 0.651117 0.053960 0.500000 
166 1 0.660770 0.071238 0.500000 
167 1 0.671006 0.054396 0.500000 
168 1 0.680668 0.071636 0.500000 
169 1 0.690897 0.054806 0.500000 
170 1 0.700575 0.072034 0.500000 
171 1 0.710789 0.055192 0.500000 
172 1 0.720491 0.072439 0.500000 
173 1 0.730685 0.055554 0.500000 
174 1 0.740415 0.072815 0.500000 
175 1 0.750586 0.055894 0.500000 
176 1 0.760324 0.073143 0.500000 
177 1 0.770490 0.056213 0.500000 
178 1 0.780242 0.073437 0.500000 
179 1 0.790400 0.056511 0.500000 
180 1 0.800170 0.073698 0.500000 
181 1 0.810316 0.056789 0.500000 
182 1 0.820085 0.073987 0.500000 
183 1 0.830238 0.057049 0.500000 
184 1 0.839962 0.074258 0.500000 
185 1 0.850164 0.057294 0.500000 
186 1 0.859854 0.074490 0.500000 
187 1 0.870095 0.057522 0.500000 
188 1 0.879778 0.074691 0.500000 
189 1 0.890032 0.057734 0.500000 
190 1 0.899751 0.074839 0.500000 
191 1 0.909975 0.057934 0.500000 
192 1 0.919739 0.075039 0.500000 
193 1 0.929922 0.058120 0.500000 
194 1 0.939704 0.075228 0.500000 
195 1 0.949875 0.058294 0.500000 
196 1 0.959621 0.075390 0.500000 
197 1 0.969833 0.058458 0.500000 
198 1 0.979588 0.075542 0.500000 
199 1 0.989796 0.058613 0.500000 
200 1 0.999557 0.075685 0.500000 
201 1 0.011275 0.067077 0.500000 
202 1 0.020924 0.084144 0.500000 
203 1 0.031308 0.067688 0.500000 
204 1 0.040959 0.084763 0.500000 
205 1 0.051342 0.068307 0.500000 
206 1 0.060994 0.085390 0.500000 
207 1 0.071376 0.068936 0.500000 
208 1 0.081068 0.086055 0.500000 
209 1 0.091432 0.069593 0.500000 
210 1 0.101114 0.086713 0.500000 
211 1 0.111505 0.070276 0.500000 
212 1 0.121160 0.087444 0.500000 
213 1 0.131558 0.071015 0.500000 
214 1 0.141213 0.088207 0.500000 
215 1 0.151576 0.071742 0.500000 
216 1 0.161294 0.088889 0.500000 
217 1 0.171593 0.072371 0.500000 
218 1 0.181343 0.089523 0.500000 
219 1 0.191644 0.073000 0.500000 
220 1 0.201385 0.090173 0.500000 
221 1 0.211722 0.073692 0.500000 
222 1 0.221443 0.090905 0.500000 
223 1 0.231771 0.074405 0.500000 
224 1 0.241518 0.091609 0.500000 
225 1 0.251816 0.075113 0.500000 
226 1 0.261570 0.092336 0.500000 
227 1 0.271870 0.075863 0.500000 
228 1 0.281586 0.093154 0.500000 
229 1 0.291896 0.076650 0.500000 
230 1 0.301602 0.093958 0.500000 
231 1 0.311882 0.077379 0.500000 
232 1 0.321619 0.094710 0.500000 
233 1 0.331840 0.078098 0.500000 
234 1 0.341616 0.095435 0.500000 
235 1 0.351810 0.078831 0.500000 
236 1 0.361570 0.096183 0.500000 
237 1 0.371787 0.079577 0.500000 
238 1 0.381507 0.096946 0.500000 
239 1 0.391746 0.080318 0.500000 
240 1 0.401430 0.097697 0.500000 
241 1 0.411678 0.081041 0.500000 
242 1 0.421347 0.098416 0.500000 
243 1 0.431613 0.081753 0.500000 
244 1 0.441266 0.099111 0.500000 
245 1 0.451536 0.082417 0.500000 
246 1 0.461177 0.099789 0.500000 
247 1 0.471433 0.083068 0.500000 
248 1 0.481085 0.100447 0.500000 
249 1 0.491340 0.083711 0.500000 
250 1 0.501007 0.101081 0.500000 
251 1 0.511252 0.084311 0.500000 
252 1 0.520913 0.101699 0.500000 
253 1 0.531159 0.084931 0.500000 
254 1 0.540820 0.102320 0.500000 
255 1 0.551084 0.085555 0.500000 
256 1 0.560720 0.102959 0.500000 
257 1 0.570988 0.086164 0.500000 
258 1 0.580613 0.103512 0.500000 
259 1 0.590887 0.086715 0.500000 
260 1 0.600508 0.104033 0.500000 
261 1 0.610783 0.087215 0.500000 
262 1 0.620412 0.104550 0.500000 
263 1 0.630669 0.087680 0.500000 
264 1 0.640324 0.104992 0.500000 
265 1 0.650572 0.088114 0.500000 
266 1 0.660235 0.105430 0.500000 
267 1 0.670476 0.088528 0.500000 
268 1 0.680155 0.105844 0.500000 
269 1 0.690378 0.088903 0.500000 
270 1 0.700066 0.106231 0.500000 
271 1 0.710295 0.089306 0.500000 
272 1 0.719960 0.106603 0.500000 
273 1 0.730213 0.089700 0.500000 
274 1 0.739858 0.106973 0.500000 
275 1 0.750112 0.090069 0.500000 
276 1 0.759775 0.107274 0.500000 
277 1 0.770019 0.090360 0.500000 
278 1 0.779709 0.107553 0.500000 
279 1 0.789940 0.090627 0.500000 
280 1 0.799608 0.107825 0.500000 
281 1 0.809861 0.090890 0.500000 
282 1 0.819482 0.108137 0.500000 
283 1 0.829786 0.091219 0.500000 
284 1 0.839425 0.108422 0.500000 
285 1 0.849706 0.091465 0.500000 
286 1 0.859382 0.108665 0.500000 
287 1 0.869610 0.091691 0.500000 
288 1 0.879319 0.108842 0.500000 
289 1 0.889521 0.091821 0.500000 
290 1 0.899210 0.108977 0.500000 
291 1 0.909450 0.091962 0.500000 
292 1 0.919141 0.109078 0.500000 
293 1 0.929433 0.092139 0.500000 
294 1 0.939130 0.109261 0.500000 
295 1 0.949407 0.092323 0.500000 
296 1 0.959160 0.109410 0.500000 
297 1 0.969375 0.092475 0.500000 
298 1 0.979136 0.109550 0.500000 
299 1 0.989349 0.092617 0.500000 
300 1 0.999117 0.109681 0.500000 
301 1 0.010532 0.100598 0.500000 
302 1 0.020165 0.117663 0.500000 
303 1 0.030566 0.101214 0.500000 
304 1 0.040201 0.118287 0.500000 
305 1 0.050602 0.101839 0.500000 
306 1 0.060239 0.118920 0.500000 
307 1 0.070640 0.102476 0.500000 
308 1 0.080284 0.119596 0.500000 
309 1 0.090726 0.103185 0.500000 
310 1 0.100357 0.120318 0.500000 
311 1 0.110768 0.103878 0.500000 
312 1 0.120422 0.121028 0.500000 
313 1 0.130814 0.104609 0.500000 
314 1 0.140492 0.121711 0.500000 
315 1 0.150908 0.105310 0.500000 
316 1 0.160578 0.122443 0.500000 
317 1 0.170992 0.106022 0.500000 
318 1 0.180677 0.123196 0.500000 
319 1 0.191045 0.106703 0.500000 
320 1 0.200759 0.123904 0.500000 
321 1 0.211093 0.107400 0.500000 
322 1 0.220823 0.124613 0.500000 
323 1 0.231174 0.108104 0.500000 
324 1 0.240855 0.125351 0.500000 
325 1 0.251233 0.108840 0.500000 
326 1 0.260863 0.126156 0.500000 
327 1 0.271232 0.109649 0.500000 
328 1 0.280878 0.126962 0.500000 
329 1 0.291238 0.110466 0.500000 
330 1 0.300894 0.127741 0.500000 
331 1 0.311278 0.111242 0.500000 
332 1 0.320900 0.128522 0.500000 
333 1 0.331308 0.112008 0.500000 
334 1 0.340906 0.129352 0.500000 
335 1 0.351285 0.112800 0.500000 
336 1 0.360883 0.130197 0.500000 
337 1 0.371223 0.113574 0.500000 
338 1 0.380813 0.130993 0.500000 
339 1 0.391147 0.114343 0.500000 
340 1 0.400726 0.131743 0.500000 
341 1 0.411056 0.115074 0.500000 
342 1 0.420629 0.132484 0.500000 
343 1 0.430954 0.115782 0.500000 
344 1 0.440526 0.133205 0.500000 
345 1 0.450866 0.116482 0.500000 
346 1 0.460441 0.133889 0.500000 
347 1 0.470783 0.117172 0.500000 
348 1 0.480359 0.134557 0.500000 
349 1 0.490696 0.117828 0.500000 
350 1 0.500260 0.135217 0.500000 
351 1 0.510609 0.118473 0.500000 
352 1 0.520164 0.135872 0.500000 
353 1 0.530516 0.119103 0.500000 
354 1 0.540068 0.136536 0.500000 
355 1 0.550402 0.119753 0.500000 
356 1 0.559968 0.137176 0.500000 
357 1 0.570288 0.120351 0.500000 
358 1 0.579852 0.137781 0.500000 
359 1 0.590161 0.120884 0.500000 
360 1 0.599729 0.138296 0.500000 
361 1 0.610060 0.121403 0.500000 
362 1 0.619626 0.138780 0.500000 
363 1 0.629977 0.121881 0.500000 
364 1 0.639539 0.139240 0.500000 
365 1 0.649879 0.122315 0.500000 
366 1 0.659457 0.139652 0.500000 
367 1 0.669801 0.122740 0.500000 
368 1 0.679384 0.140055 0.500000 
369 1 0.689747 0.123170 0.500000 
370 1 0.699328 0.140457 0.500000 
371 1 0.709680 0.123561 0.500000 
372 1 0.719285 0.140807 0.500000 
373 1 0.729603 0.123882 0.500000 
374 1 0.739253 0.141122 0.500000 
375 1 0.749550 0.124212 0.500000 
376 1 0.759237 0.141431 0.500000 
377 1 0.769479 0.124461 0.500000 
378 1 0.779175 0.141677 0.500000 
379 1 0.789400 0.124761 0.500000 
380 1 0.799109 0.142002 0.500000 
381 1 0.809284 0.125069 0.500000 
382 1 0.819055 0.142241 0.500000 
383 1 0.829211 0.125344 0.500000 
384 1 0.839005 0.142501 0.500000 
385 1 0.849160 0.125603 0.500000 
386 1 0.858937 0.142752 0.500000 
387 1 0.869102 0.125807 0.500000 
388 1 0.878855 0.142951 0.500000 
389 1 0.889034 0.125974 0.500000 
390 1 0.898777 0.143106 0.500000 
391 1 0.908960 0.126079 0.500000 
392 1 0.918718 0.143187 0.500000 
393 1 0.928914 0.126204 0.500000 
394 1 0.938710 0.143286 0.500000 
395 1 0.948940 0.126349 0.500000 
396 1 0.958701 0.143428 0.500000 
397 1 0.968919 0.126487 0.500000 
398 1 0.978689 0.143555 0.500000 
399 1 0.988905 0.126616 0.500000 
400 1 0.998682 0.143674 0.500000 
401 1 0.009754 0.134110 0.500000 
402 1 0.019367 0.151171 0.500000 
403 1 0.029790 0.134729 0.500000 
404 1 0.039403 0.151799 0.500000 
405 1 0.049825 0.135360 0.500000 
406 1 0.059442 0.152437 0.500000 
407 1 0.069865 0.136003 0.500000 
408 1 0.079534 0.153144 0.500000 
409 1 0.089939 0.136725 0.500000 
410 1 0.099609 0.153858 0.500000 
411 1 0.110011 0.137447 0.500000 
412 1 0.119670 0.154567 0.500000 
413 1 0.130075 0.138144 0.500000 
414 1 0.139728 0.155268 0.500000 
415 1 0.150127 0.138845 0.500000 
416 1 0.159774 0.156015 0.500000 
417 1 0.170208 0.139604 0.500000 
418 1 0.179854 0.156772 0.500000 
419 1 0.190333 0.140363 0.500000 
420 1 0.199975 0.157538 0.500000 
421 1 0.210427 0.141098 0.500000 
422 1 0.220062 0.158291 0.500000 
423 1 0.230481 0.141841 0.500000 
424 1 0.240083 0.159084 0.500000 
425 1 0.250497 0.142637 0.500000 
426 1 0.260080 0.159908 0.500000 
427 1 0.270505 0.143452 0.500000 
428 1 0.280100 0.160728 0.500000 
429 1 0.290508 0.144242 0.500000 
430 1 0.300117 0.161553 0.500000 
431 1 0.310499 0.145042 0.500000 
432 1 0.320128 0.162391 0.500000 
433 1 0.330493 0.145864 0.500000 
434 1 0.340124 0.163275 0.500000 
435 1 0.350496 0.146749 0.500000 
436 1 0.360094 0.164173 0.500000 
437 1 0.370460 0.147615 0.500000 
438 1 0.380026 0.165018 0.500000 
439 1 0.390373 0.148400 0.500000 
440 1 0.399918 0.165803 0.500000 
441 1 0.410264 0.149156 0.500000 
442 1 0.419825 0.166563 0.500000 
443 1 0.430158 0.149918 0.500000 
444 1 0.439750 0.167275 0.500000 
445 1 0.450073 0.150606 0.500000 
446 1 0.459640 0.168005 0.500000 
447 1 0.469975 0.151285 0.500000 
448 1 0.479513 0.168725 0.500000 
449 1 0.489866 0.151979 0.500000 
450 1 0.499411 0.169418 0.500000 
451 1 0.509766 0.152658 0.500000 
452 1 0.519311 0.170112 0.500000 
453 1 0.529671 0.153321 0.500000 
454 1 0.539206 0.170779 0.500000 
455 1 0.549576 0.153976 0.500000 
456 1 0.559117 0.171418 0.500000 
457 1 0.569491 0.154615 0.500000 
458 1 0.579046 0.172031 0.500000 
459 1 0.589419 0.155204 0.500000 
460 1 0.598962 0.172623 0.500000 
461 1 0.609304 0.155698 0.500000 
462 1 0.618854 0.173062 0.500000 
463 1 0.629200 0.156131 0.500000 
464 1 0.638749 0.173463 0.500000 
465 1 0.649135 0.156580 0.500000 
466 1 0.658714 0.173887 0.500000 
467 1 0.669072 0.156994 0.500000 
468 1 0.678673 0.174302 0.500000 
469 1 0.688979 0.157354 0.500000 
470 1 0.698599 0.174638 0.500000 
471 1 0.708913 0.157707 0.500000 
472 1 0.718546 0.174972 0.500000 
473 1 0.728887 0.158037 0.500000 
474 1 0.738490 0.175254 0.500000 
475 1 0.748880 0.158337 0.500000 
476 1 0.758453 0.175530 0.500000 
477 1 0.768864 0.158638 0.500000 
478 1 0.778445 0.175830 0.500000 
479 1 0.788817 0.158913 0.500000 
480 1 0.798445 0.176097 0.500000 
481 1 0.808782 0.159175 0.500000 
482 1 0.818453 0.176328 0.500000 
483 1 0.828742 0.159393 0.500000 
484 1 0.838442 0.176586 0.500000 
485 1 0.848684 0.159639 0.500000 
486 1 0.858418 0.176777 0.500000 
487 1 0.868637 0.159873 0.500000 
488 1 0.878380 0.177003 0.500000 
489 1 0.888603 0.160097 0.500000 
490 1 0.898375 0.177197 0.500000 
491 1 0.908584 0.160231 0.500000 
492 1 0.918358 0.177335 0.500000 
493 1 0.928522 0.160263 0.500000 
494 1 0.938301 0.177331 0.500000 
495 1 0.948477 0.160370 0.500000 
496 1 0.958249 0.177440 0.500000 
497 1 0.968470 0.160496 0.500000 
498 1 0.978251 0.177553 0.500000 
499 1 0.988467 0.160611 0.500000 
500 1 0.998258 0.177659 0.500000 
501 1 0.008938 0.167610 0.500000 
502 1 0.018532 0.184668 0.500000 
503 1 0.028972 0.168234 0.500000 
504 1 0.038566 0.185299 0.500000 
505 1 0.049008 0.168868 0.500000 
506 1 0.058602 0.185942 0.500000 
507 1 0.069047 0.169517 0.500000 
508 1 0.078692 0.186642 0.500000 
509 1 0.089169 0.170258 0.500000 
510 1 0.098776 0.187381 0.500000 
511 1 0.109248 0.170984 0.500000 
512 1 0.118883 0.188101 0.500000 
513 1 0.129309 0.171683 0.500000 
514 1 0.138977 0.188840 0.500000 
515 1 0.149368 0.172423 0.500000 
516 1 0.159047 0.189618 0.500000 
517 1 0.169446 0.173197 0.500000 
518 1 0.179098 0.190398 0.500000 
519 1 0.189548 0.173964 0.500000 
520 1 0.199152 0.191207 0.500000 
521 1 0.209634 0.174748 0.500000 
522 1 0.219205 0.192016 0.500000 
523 1 0.229662 0.175546 0.500000 
524 1 0.239248 0.192823 0.500000 
525 1 0.249676 0.176354 0.500000 
526 1 0.259278 0.193650 0.500000 
527 1 0.269711 0.177199 0.500000 
528 1 0.279324 0.194524 0.500000 
529 1 0.289747 0.178046 0.500000 
530 1 0.299354 0.195397 0.500000 
531 1 0.309764 0.178899 0.500000 
532 1 0.319369 0.196264 0.500000 
533 1 0.329768 0.179786 0.500000 
534 1 0.339361 0.197197 0.500000 
535 1 0.349759 0.180708 0.500000 
536 1 0.359346 0.198128 0.500000 
537 1 0.369705 0.181598 0.500000 
538 1 0.379321 0.199038 0.500000 
539 1 0.389626 0.182445 0.500000 
540 1 0.399288 0.199881 0.500000 
541 1 0.409561 0.183217 0.500000 
542 1 0.419231 0.200659 0.500000 
543 1 0.429481 0.183956 0.500000 
544 1 0.439112 0.201425 0.500000 
545 1 0.449358 0.184701 0.500000 
546 1 0.458985 0.202160 0.500000 
547 1 0.469243 0.185438 0.500000 
548 1 0.478877 0.202887 0.500000 
549 1 0.489146 0.186157 0.500000 
550 1 0.498762 0.203670 0.500000 
551 1 0.509009 0.186896 0.500000 
552 1 0.518651 0.204391 0.500000 
553 1 0.528885 0.187573 0.500000 
554 1 0.538523 0.205071 0.500000 
555 1 0.548803 0.188225 0.500000 
556 1 0.558404 0.205698 0.500000 
557 1 0.568724 0.188865 0.500000 
558 1 0.578294 0.206322 0.500000 
559 1 0.588605 0.189472 0.500000 
560 1 0.598179 0.206884 0.500000 
561 1 0.608496 0.189991 0.500000 
562 1 0.618084 0.207377 0.500000 
563 1 0.628400 0.190438 0.500000 
564 1 0.638005 0.207787 0.500000 
565 1 0.648333 0.190790 0.500000 
566 1 0.657907 0.208121 0.500000 
567 1 0.668296 0.191188 0.500000 
568 1 0.677880 0.208461 0.500000 
569 1 0.688274 0.191570 0.500000 
570 1 0.697884 0.208783 0.500000 
571 1 0.708242 0.191891 0.500000 
572 1 0.717891 0.209081 0.500000 
573 1 0.728199 0.192218 0.500000 
574 1 0.737905 0.209382 0.500000 
575 1 0.748140 0.192444 0.500000 
576 1 0.757903 0.209645 0.500000 
577 1 0.768131 0.192710 0.500000 
578 1 0.777898 0.209914 0.500000 
579 1 0.788155 0.192990 0.500000 
580 1 0.797897 0.210164 0.500000 
581 1 0.808159 0.193235 0.500000 
582 1 0.817879 0.210430 0.500000 
583 1 0.828150 0.193530 0.500000 
584 1 0.837900 0.210697 0.500000 
585 1 0.848160 0.193747 0.500000 
586 1 0.857898 0.210907 0.500000 
587 1 0.868151 0.193931 0.500000 
588 1 0.877893 0.211058 0.500000 
589 1 0.888134 0.194100 0.500000 
590 1 0.897865 0.211209 0.500000 
591 1 0.908088 0.194306 0.500000 
592 1 0.917848 0.211348 0.500000 
593 1 0.928058 0.194376 0.500000 
594 1 0.937812 0.211398 0.500000 
595 1 0.948021 0.194385 0.500000 
596 1 0.957807 0.211443 0.500000 
597 1 0.968031 0.194496 0.500000 
598 1 0.977825 0.211543 0.500000 
599 1 0.988043 0.194599 0.500000 
600 1 0.997847 0.211634 0.500000 
601 1 0.008083 0.201103 0.500000 
602 1 0.017654 0.218157 0.500000 
603 1 0.028113 0.201727 0.500000 
604 1 0.037684 0.218790 0.500000 
605 1 0.048147 0.202367 0.500000 
606 1 0.057718 0.219436 0.500000 
607 1 0.068185 0.203017 0.500000 
608 1 0.077814 0.220121 0.500000 
609 1 0.088314 0.203773 0.500000 
610 1 0.097945 0.220896 0.500000 
611 1 0.108439 0.204506 0.500000 
612 1 0.118033 0.221675 0.500000 
613 1 0.128545 0.205258 0.500000 
614 1 0.138086 0.222469 0.500000 
615 1 0.148616 0.206052 0.500000 
616 1 0.158141 0.223283 0.500000 
617 1 0.168657 0.206862 0.500000 
618 1 0.178215 0.224110 0.500000 
619 1 0.188672 0.207657 0.500000 
620 1 0.198272 0.224896 0.500000 
621 1 0.208726 0.208455 0.500000 
622 1 0.218320 0.225688 0.500000 
623 1 0.228795 0.209274 0.500000 
624 1 0.238383 0.226544 0.500000 
625 1 0.248838 0.210120 0.500000 
626 1 0.258447 0.227417 0.500000 
627 1 0.268858 0.210974 0.500000 
628 1 0.278500 0.228303 0.500000 
629 1 0.288902 0.211856 0.500000 
630 1 0.298532 0.229213 0.500000 
631 1 0.308951 0.212756 0.500000 
632 1 0.318563 0.230163 0.500000 
633 1 0.328962 0.213682 0.500000 
634 1 0.338556 0.231135 0.500000 
635 1 0.348961 0.214627 0.500000 
636 1 0.358552 0.232084 0.500000 
637 1 0.368947 0.215580 0.500000 
638 1 0.378582 0.233010 0.500000 
639 1 0.388952 0.216478 0.500000 
640 1 0.398569 0.233922 0.500000 
641 1 0.408935 0.217322 0.500000 
642 1 0.418522 0.234795 0.500000 
643 1 0.428839 0.218129 0.500000 
644 1 0.438464 0.235568 0.500000 
645 1 0.448736 0.218874 0.500000 
646 1 0.458383 0.236379 0.500000 
647 1 0.468637 0.219630 0.500000 
648 1 0.478281 0.237191 0.500000 
649 1 0.488541 0.220424 0.500000 
650 1 0.498182 0.237973 0.500000 
651 1 0.508429 0.221171 0.500000 
652 1 0.518062 0.238716 0.500000 
653 1 0.528306 0.221906 0.500000 
654 1 0.537967 0.239395 0.500000 
655 1 0.548194 0.222578 0.500000 
656 1 0.557852 0.240088 0.500000 
657 1 0.568047 0.223200 0.500000 
658 1 0.577709 0.240688 0.500000 
659 1 0.587916 0.223786 0.500000 
660 1 0.597588 0.241216 0.500000 
661 1 0.607818 0.224269 0.500000 
662 1 0.617485 0.241619 0.500000 
663 1 0.627744 0.224707 0.500000 
664 1 0.637437 0.242007 0.500000 
665 1 0.647656 0.225120 0.500000 
666 1 0.657394 0.242399 0.500000 
667 1 0.667566 0.225393 0.500000 
668 1 0.677303 0.242693 0.500000 
669 1 0.687516 0.225708 0.500000 
670 1 0.697231 0.242947 0.500000 
671 1 0.707501 0.225970 0.500000 
672 1 0.717188 0.243184 0.500000 
673 1 0.727496 0.226238 0.500000 
674 1 0.737193 0.243417 0.500000 
675 1 0.747537 0.226545 0.500000 
676 1 0.757216 0.243754 0.500000 
677 1 0.767564 0.226865 0.500000 
678 1 0.777245 0.244018 0.500000 
679 1 0.787588 0.227095 0.500000 
680 1 0.797274 0.244243 0.500000 
681 1 0.807608 0.227354 0.500000 
682 1 0.817310 0.244510 0.500000 
683 1 0.827617 0.227588 0.500000 
684 1 0.837323 0.244729 0.500000 
685 1 0.847636 0.227836 0.500000 
686 1 0.857359 0.244951 0.500000 
687 1 0.867637 0.228035 0.500000 
688 1 0.877387 0.245132 0.500000 
689 1 0.887628 0.228170 0.500000 
690 1 0.897352 0.245228 0.500000 
691 1 0.907620 0.228246 0.500000 
692 1 0.917333 0.245294 0.500000 
693 1 0.927638 0.228376 0.500000 
694 1 0.937387 0.245377 0.500000 
695 1 0.947580 0.228392 0.500000 
696 1 0.957383 0.245436 0.500000 
697 1 0.967605 0.228489 0.500000 
698 1 0.977417 0.245522 0.500000 
699 1 0.987634 0.228577 0.500000 
700 1 0.997455 0.245600 0.500000 
701 1 0.007189 0.234587 0.500000 
702 1 0.016737 0.251640 0.500000 
703 1 0.027214 0.235215 0.500000 
704 1 0.036760 0.252274 0.500000 
705 1 0.047243 0.235854 0.500000 
706 1 0.056787 0.252921 0.500000 
707 1 0.067275 0.236508 0.500000 
708 1 0.076851 0.253607 0.500000 
709 1 0.087373 0.237235 0.500000 
710 1 0.096934 0.254372 0.500000 
711 1 0.107476 0.238038 0.500000 
712 1 0.117023 0.255193 0.500000 
713 1 0.127570 0.238865 0.500000 
714 1 0.137105 0.256043 0.500000 
715 1 0.147626 0.239685 0.500000 
716 1 0.157181 0.256850 0.500000 
717 1 0.167689 0.240482 0.500000 
718 1 0.177270 0.257651 0.500000 
719 1 0.187793 0.241303 0.500000 
720 1 0.197370 0.258496 0.500000 
721 1 0.207880 0.242124 0.500000 
722 1 0.217447 0.259368 0.500000 
723 1 0.227917 0.242953 0.500000 
724 1 0.237489 0.260240 0.500000 
725 1 0.247970 0.243820 0.500000 
726 1 0.257532 0.261130 0.500000 
727 1 0.268044 0.244722 0.500000 
728 1 0.277574 0.262069 0.500000 
729 1 0.288087 0.245658 0.500000 
730 1 0.297614 0.263020 0.500000 
731 1 0.308094 0.246603 0.500000 
732 1 0.317648 0.263995 0.500000 
733 1 0.328102 0.247585 0.500000 
734 1 0.337659 0.265007 0.500000 
735 1 0.348121 0.248556 0.500000 
736 1 0.357649 0.266033 0.500000 
737 1 0.368109 0.249522 0.500000 
738 1 0.377654 0.267050 0.500000 
739 1 0.388100 0.250498 0.500000 
740 1 0.397677 0.268007 0.500000 
741 1 0.408099 0.251420 0.500000 
742 1 0.417677 0.268889 0.500000 
743 1 0.428086 0.252250 0.500000 
744 1 0.437607 0.269748 0.500000 
745 1 0.448014 0.253088 0.500000 
746 1 0.457547 0.270603 0.500000 
747 1 0.467928 0.253916 0.500000 
748 1 0.477470 0.271448 0.500000 
749 1 0.487854 0.254730 0.500000 
750 1 0.497393 0.272272 0.500000 
751 1 0.507773 0.255545 0.500000 
752 1 0.517346 0.273069 0.500000 
753 1 0.527680 0.256244 0.500000 
754 1 0.537246 0.273811 0.500000 
755 1 0.547564 0.256922 0.500000 
756 1 0.557145 0.274462 0.500000 
757 1 0.567464 0.257570 0.500000 
758 1 0.577075 0.275064 0.500000 
759 1 0.587358 0.258139 0.500000 
760 1 0.597021 0.275549 0.500000 
761 1 0.607267 0.258626 0.500000 
762 1 0.616941 0.276001 0.500000 
763 1 0.627148 0.258954 0.500000 
764 1 0.636835 0.276330 0.500000 
765 1 0.647078 0.259329 0.500000 
766 1 0.656781 0.276642 0.500000 
767 1 0.667065 0.259694 0.500000 
768 1 0.676754 0.276978 0.500000 
769 1 0.687023 0.259962 0.500000 
770 1 0.696677 0.277249 0.500000 
771 1 0.706972 0.260200 0.500000 
772 1 0.716645 0.277430 0.500000 
773 1 0.726961 0.260406 0.500000 
774 1 0.736664 0.277662 0.500000 
775 1 0.746955 0.260658 0.500000 
776 1 0.756698 0.277867 0.500000 
777 1 0.767010 0.260936 0.500000 
778 1 0.776764 0.278133 0.500000 
779 1 0.787022 0.261167 0.500000 
780 1 0.796779 0.278351 0.500000 
781 1 0.807016 0.261401 0.500000 
782 1 0.816755 0.278558 0.500000 
783 1 0.827036 0.261645 0.500000 
784 1 0.836755 0.278755 0.500000 
785 1 0.847088 0.261833 0.500000 
786 1 0.856804 0.278932 0.500000 
787 1 0.867139 0.262035 0.500000 
788 1 0.876814 0.279111 0.500000 
789 1 0.887141 0.262218 0.500000 
790 1 0.896865 0.279239 0.500000 
791 1 0.907138 0.262260 0.500000 
792 1 0.916911 0.279297 0.500000 
793 1 0.927148 0.262312 0.500000 
794 1 0.936952 0.279319 0.500000 
795 1 0.947159 0.262387 0.500000 
796 1 0.956982 0.279417 0.500000 
797 1 0.967200 0.262468 0.500000 
798 1 0.977036 0.279488 0.500000 
799 1 0.987245 0.262544 0.500000 
800 1 0.997089 0.279555 0.500000 
801 1 0.006256 0.268068 0.500000 
802 1 0.015779 0.285121 0.500000 
803 1 0.026272 0.268696 0.500000 
804 1 0.035792 0.285753 0.500000 
805 1 0.046292 0.269335 0.500000 
806 1 0.055810 0.286400 0.500000 
807 1 0.066319 0.269991 0.500000 
808 1 0.075852 0.287141 0.500000 
809 1 0.086383 0.270751 0.500000 
810 1 0.095911 0.287905 0.500000 
811 1 0.106451 0.271532 0.500000 
812 1 0.115986 0.288662 0.500000 
813 1 0.126543 0.272345 0.500000 
814 1 0.136084 0.289463 0.500000 
815 1 0.146662 0.273169 0.500000 
816 1 0.156216 0.290290 0.500000 
817 1 0.166791 0.273996 0.500000 
818 1 0.176315 0.291170 0.500000 
819 1 0.186870 0.274843 0.500000 
820 1 0.196383 0.292024 0.500000 
821 1 0.206933 0.275713 0.500000 
822 1 0.216441 0.292936 0.500000 
823 1 0.226981 0.276620 0.500000 
824 1 0.236495 0.293866 0.500000 
825 1 0.247023 0.277535 0.500000 
826 1 0.256579 0.294809 0.500000 
827 1 0.267072 0.278460 0.500000 
828 1 0.276671 0.295752 0.500000 
829 1 0.287142 0.279397 0.500000 
830 1 0.296746 0.296758 0.500000 
831 1 0.307207 0.280399 0.500000 
832 1 0.316806 0.297856 0.500000 
833 1 0.327244 0.281454 0.500000 
834 1 0.336860 0.298949 0.500000 
835 1 0.347264 0.282525 0.500000 
836 1 0.356910 0.300003 0.500000 
837 1 0.367276 0.283560 0.500000 
838 1 0.376938 0.301043 0.500000 
839 1 0.387312 0.284528 0.500000 
840 1 0.396949 0.302042 0.500000 
841 1 0.407327 0.285475 0.500000 
842 1 0.416958 0.303062 0.500000 
843 1 0.427294 0.286398 0.500000 
844 1 0.436890 0.304029 0.500000 
845 1 0.447234 0.287307 0.500000 
846 1 0.456807 0.304924 0.500000 
847 1 0.467144 0.288204 0.500000 
848 1 0.476731 0.305812 0.500000 
849 1 0.487046 0.289031 0.500000 
850 1 0.496643 0.306639 0.500000 
851 1 0.506977 0.289814 0.500000 
852 1 0.516558 0.307454 0.500000 
853 1 0.526926 0.290649 0.500000 
854 1 0.536498 0.308233 0.500000 
855 1 0.546843 0.291371 0.500000 
856 1 0.556429 0.308926 0.500000 
857 1 0.566743 0.292002 0.500000 
858 1 0.576352 0.309447 0.500000 
859 1 0.586709 0.292508 0.500000 
860 1 0.596301 0.309922 0.500000 
861 1 0.606660 0.292977 0.500000 
862 1 0.616281 0.310328 0.500000 
863 1 0.626604 0.293338 0.500000 
864 1 0.636210 0.310658 0.500000 
865 1 0.646547 0.293639 0.500000 
866 1 0.656151 0.310925 0.500000 
867 1 0.666502 0.293931 0.500000 
868 1 0.676132 0.311217 0.500000 
869 1 0.686482 0.294278 0.500000 
870 1 0.696148 0.311566 0.500000 
871 1 0.706431 0.294517 0.500000 
872 1 0.716115 0.311768 0.500000 
873 1 0.726397 0.294689 0.500000 
874 1 0.736078 0.311967 0.500000 
875 1 0.746399 0.294903 0.500000 
876 1 0.756120 0.312106 0.500000 
877 1 0.766442 0.295088 0.500000 
878 1 0.776180 0.312295 0.500000 
879 1 0.786491 0.295345 0.500000 
880 1 0.796243 0.312520 0.500000 
881 1 0.806504 0.295531 0.500000 