ITEM: TIMESTEP
400
ITEM: NUMBER OF ATOMS
2850
ITEM: BOX BOUNDS ss ss pp
-28.0536 28.3253 
-28.9988 28.9984 
-0.5 0.5 
ITEM: ATOMS id type xs ys zs
1 1 0.012661 0.000000 0.500000 
2 1 0.022340 0.017073 0.500000 
3 1 0.032688 0.000597 0.500000 
4 1 0.042369 0.017677 0.500000 
5 1 0.052715 0.001202 0.500000 
6 1 0.062397 0.018289 0.500000 
7 1 0.072742 0.001814 0.500000 
8 1 0.082426 0.018911 0.500000 
9 1 0.092767 0.002433 0.500000 
10 1 0.102455 0.019539 0.500000 
11 1 0.112794 0.003060 0.500000 
12 1 0.122484 0.020177 0.500000 
13 1 0.132817 0.003697 0.500000 
14 1 0.142511 0.020822 0.500000 
15 1 0.152841 0.004338 0.500000 
16 1 0.162536 0.021475 0.500000 
17 1 0.172861 0.004988 0.500000 
18 1 0.182559 0.022136 0.500000 
19 1 0.192879 0.005643 0.500000 
20 1 0.202579 0.022803 0.500000 
21 1 0.212895 0.006305 0.500000 
22 1 0.222596 0.023475 0.500000 
23 1 0.232906 0.006973 0.500000 
24 1 0.242610 0.024155 0.500000 
25 1 0.252912 0.007645 0.500000 
26 1 0.262618 0.024839 0.500000 
27 1 0.272914 0.008319 0.500000 
28 1 0.282622 0.025527 0.500000 
29 1 0.292911 0.008997 0.500000 
30 1 0.302619 0.026217 0.500000 
31 1 0.312901 0.009676 0.500000 
32 1 0.322610 0.026908 0.500000 
33 1 0.332885 0.010356 0.500000 
34 1 0.342593 0.027600 0.500000 
35 1 0.352861 0.011033 0.500000 
36 1 0.362570 0.028289 0.500000 
37 1 0.372830 0.011707 0.500000 
38 1 0.382537 0.028974 0.500000 
39 1 0.392791 0.012376 0.500000 
40 1 0.402497 0.029655 0.500000 
41 1 0.412744 0.013039 0.500000 
42 1 0.422448 0.030326 0.500000 
43 1 0.432688 0.013694 0.500000 
44 1 0.442390 0.030989 0.500000 
45 1 0.452624 0.014337 0.500000 
46 1 0.462324 0.031639 0.500000 
47 1 0.472553 0.014968 0.500000 
48 1 0.482250 0.032276 0.500000 
49 1 0.492474 0.015584 0.500000 
50 1 0.502167 0.032896 0.500000 
51 1 0.512388 0.016184 0.500000 
52 1 0.522078 0.033498 0.500000 
53 1 0.532295 0.016766 0.500000 
54 1 0.541983 0.034081 0.500000 
55 1 0.552198 0.017330 0.500000 
56 1 0.561882 0.034643 0.500000 
57 1 0.572095 0.017873 0.500000 
58 1 0.581777 0.035184 0.500000 
59 1 0.591989 0.018396 0.500000 
60 1 0.601668 0.035702 0.500000 
61 1 0.611880 0.018896 0.500000 
62 1 0.621558 0.036195 0.500000 
63 1 0.631769 0.019373 0.500000 
64 1 0.641446 0.036666 0.500000 
65 1 0.651657 0.019829 0.500000 
66 1 0.661334 0.037110 0.500000 
67 1 0.671546 0.020261 0.500000 
68 1 0.681223 0.037533 0.500000 
69 1 0.691436 0.020670 0.500000 
70 1 0.701115 0.037931 0.500000 
71 1 0.711328 0.021058 0.500000 
72 1 0.721007 0.038307 0.500000 
73 1 0.731222 0.021423 0.500000 
74 1 0.740905 0.038660 0.500000 
75 1 0.751120 0.021768 0.500000 
76 1 0.760806 0.038993 0.500000 
77 1 0.771021 0.022094 0.500000 
78 1 0.780711 0.039305 0.500000 
79 1 0.790927 0.022399 0.500000 
80 1 0.800620 0.039597 0.500000 
81 1 0.810837 0.022687 0.500000 
82 1 0.820536 0.039873 0.500000 
83 1 0.830751 0.022958 0.500000 
84 1 0.840456 0.040130 0.500000 
85 1 0.850671 0.023211 0.500000 
86 1 0.860382 0.040369 0.500000 
87 1 0.870595 0.023449 0.500000 
88 1 0.880312 0.040595 0.500000 
89 1 0.890525 0.023674 0.500000 
90 1 0.900248 0.040807 0.500000 
91 1 0.910459 0.023884 0.500000 
92 1 0.920188 0.041005 0.500000 
93 1 0.930398 0.024080 0.500000 
94 1 0.940134 0.041192 0.500000 
95 1 0.950341 0.024267 0.500000 
96 1 0.960084 0.041368 0.500000 
97 1 0.970290 0.024443 0.500000 
98 1 0.980040 0.041531 0.500000 
99 1 0.990243 0.024606 0.500000 
100 1 1.000000 0.041686 0.500000 
101 1 0.011983 0.033545 0.500000 
102 1 0.021650 0.050615 0.500000 
103 1 0.032014 0.034148 0.500000 
104 1 0.041680 0.051227 0.500000 
105 1 0.052044 0.034760 0.500000 
106 1 0.061715 0.051847 0.500000 
107 1 0.072075 0.035381 0.500000 
108 1 0.081763 0.052488 0.500000 
109 1 0.092107 0.036012 0.500000 
110 1 0.101806 0.053136 0.500000 
111 1 0.112138 0.036650 0.500000 
112 1 0.121847 0.053788 0.500000 
113 1 0.132168 0.037297 0.500000 
114 1 0.141885 0.054452 0.500000 
115 1 0.152197 0.037952 0.500000 
116 1 0.161918 0.055129 0.500000 
117 1 0.172226 0.038617 0.500000 
118 1 0.181944 0.055812 0.500000 
119 1 0.192251 0.039288 0.500000 
120 1 0.201966 0.056496 0.500000 
121 1 0.212274 0.039967 0.500000 
122 1 0.221986 0.057184 0.500000 
123 1 0.232293 0.040654 0.500000 
124 1 0.242003 0.057874 0.500000 
125 1 0.252309 0.041345 0.500000 
126 1 0.262017 0.058567 0.500000 
127 1 0.272318 0.042042 0.500000 
128 1 0.282024 0.059265 0.500000 
129 1 0.292324 0.042743 0.500000 
130 1 0.302027 0.059969 0.500000 
131 1 0.312323 0.043447 0.500000 
132 1 0.322023 0.060681 0.500000 
133 1 0.332314 0.044150 0.500000 
134 1 0.342010 0.061404 0.500000 
135 1 0.352297 0.044856 0.500000 
136 1 0.361985 0.062134 0.500000 
137 1 0.372273 0.045557 0.500000 
138 1 0.381947 0.062864 0.500000 
139 1 0.392240 0.046254 0.500000 
140 1 0.401900 0.063588 0.500000 
141 1 0.412198 0.046944 0.500000 
142 1 0.421844 0.064298 0.500000 
143 1 0.432147 0.047626 0.500000 
144 1 0.441782 0.064994 0.500000 
145 1 0.452087 0.048297 0.500000 
146 1 0.461712 0.065674 0.500000 
147 1 0.472018 0.048954 0.500000 
148 1 0.481633 0.066336 0.500000 
149 1 0.491940 0.049595 0.500000 
150 1 0.501546 0.066979 0.500000 
151 1 0.511855 0.050220 0.500000 
152 1 0.521453 0.067598 0.500000 
153 1 0.531762 0.050823 0.500000 
154 1 0.541354 0.068195 0.500000 
155 1 0.551663 0.051406 0.500000 
156 1 0.561251 0.068767 0.500000 
157 1 0.571560 0.051966 0.500000 
158 1 0.581145 0.069314 0.500000 
159 1 0.591452 0.052503 0.500000 
160 1 0.601037 0.069838 0.500000 
161 1 0.611341 0.053013 0.500000 
162 1 0.620927 0.070339 0.500000 
163 1 0.631230 0.053499 0.500000 
164 1 0.640816 0.070816 0.500000 
165 1 0.651117 0.053960 0.500000 
166 1 0.660706 0.071266 0.500000 
167 1 0.671006 0.054396 0.500000 
168 1 0.680600 0.071686 0.500000 
169 1 0.690897 0.054806 0.500000 
170 1 0.700500 0.072077 0.500000 
171 1 0.710789 0.055192 0.500000 
172 1 0.720408 0.072439 0.500000 
173 1 0.730685 0.055554 0.500000 
174 1 0.740322 0.072775 0.500000 
175 1 0.750586 0.055894 0.500000 
176 1 0.760242 0.073091 0.500000 
177 1 0.770490 0.056213 0.500000 
178 1 0.780165 0.073390 0.500000 
179 1 0.790400 0.056511 0.500000 
180 1 0.800089 0.073675 0.500000 
181 1 0.810316 0.056789 0.500000 
182 1 0.820013 0.073949 0.500000 
183 1 0.830238 0.057049 0.500000 
184 1 0.839936 0.074212 0.500000 
185 1 0.850164 0.057294 0.500000 
186 1 0.859861 0.074458 0.500000 
187 1 0.870095 0.057522 0.500000 
188 1 0.879793 0.074680 0.500000 
189 1 0.890032 0.057734 0.500000 
190 1 0.899737 0.074878 0.500000 
191 1 0.909975 0.057934 0.500000 
192 1 0.919693 0.075060 0.500000 
193 1 0.929922 0.058120 0.500000 
194 1 0.939655 0.075230 0.500000 
195 1 0.949875 0.058294 0.500000 
196 1 0.959621 0.075390 0.500000 
197 1 0.969833 0.058458 0.500000 
198 1 0.979588 0.075542 0.500000 
199 1 0.989796 0.058613 0.500000 
200 1 0.999557 0.075685 0.500000 
201 1 0.011275 0.067077 0.500000 
202 1 0.020924 0.084144 0.500000 
203 1 0.031308 0.067688 0.500000 
204 1 0.040959 0.084763 0.500000 
205 1 0.051342 0.068307 0.500000 
206 1 0.060994 0.085390 0.500000 
207 1 0.071376 0.068936 0.500000 
208 1 0.081055 0.086047 0.500000 
209 1 0.091439 0.069601 0.500000 
210 1 0.101121 0.086723 0.500000 
211 1 0.111495 0.070264 0.500000 
212 1 0.121186 0.087402 0.500000 
213 1 0.131548 0.070936 0.500000 
214 1 0.141244 0.088098 0.500000 
215 1 0.151593 0.071625 0.500000 
216 1 0.161295 0.088807 0.500000 
217 1 0.171630 0.072322 0.500000 
218 1 0.181337 0.089515 0.500000 
219 1 0.191657 0.073017 0.500000 
220 1 0.201369 0.090213 0.500000 
221 1 0.211680 0.073706 0.500000 
222 1 0.221398 0.090906 0.500000 
223 1 0.231700 0.074396 0.500000 
224 1 0.241425 0.091605 0.500000 
225 1 0.251718 0.075090 0.500000 
226 1 0.261450 0.092315 0.500000 
227 1 0.271733 0.075791 0.500000 
228 1 0.281469 0.093037 0.500000 
229 1 0.291743 0.076501 0.500000 
230 1 0.301474 0.093778 0.500000 
231 1 0.311744 0.077224 0.500000 
232 1 0.321461 0.094535 0.500000 
233 1 0.331732 0.077964 0.500000 
234 1 0.341427 0.095306 0.500000 
235 1 0.351704 0.078717 0.500000 
236 1 0.361379 0.096077 0.500000 
237 1 0.371661 0.079472 0.500000 
238 1 0.381323 0.096834 0.500000 
239 1 0.391608 0.080218 0.500000 
240 1 0.401263 0.097573 0.500000 
241 1 0.411548 0.080946 0.500000 
242 1 0.421198 0.098296 0.500000 
243 1 0.431483 0.081657 0.500000 
244 1 0.441124 0.099007 0.500000 
245 1 0.451409 0.082353 0.500000 
246 1 0.461044 0.099706 0.500000 
247 1 0.471329 0.083034 0.500000 
248 1 0.480958 0.100392 0.500000 
249 1 0.491243 0.083698 0.500000 
250 1 0.500864 0.101065 0.500000 
251 1 0.511150 0.084344 0.500000 
252 1 0.520762 0.101718 0.500000 
253 1 0.531049 0.084968 0.500000 
254 1 0.540657 0.102344 0.500000 
255 1 0.550944 0.085567 0.500000 
256 1 0.560549 0.102941 0.500000 
257 1 0.570838 0.086137 0.500000 
258 1 0.580440 0.103509 0.500000 
259 1 0.590732 0.086678 0.500000 
260 1 0.600331 0.104042 0.500000 
261 1 0.610625 0.087190 0.500000 
262 1 0.620226 0.104540 0.500000 
263 1 0.630521 0.087676 0.500000 
264 1 0.640126 0.105007 0.500000 
265 1 0.650417 0.088134 0.500000 
266 1 0.660027 0.105442 0.500000 
267 1 0.670314 0.088562 0.500000 
268 1 0.679929 0.105846 0.500000 
269 1 0.690215 0.088959 0.500000 
270 1 0.699831 0.106219 0.500000 
271 1 0.710123 0.089326 0.500000 
272 1 0.719738 0.106564 0.500000 
273 1 0.730039 0.089665 0.500000 
274 1 0.739654 0.106887 0.500000 
275 1 0.749962 0.089982 0.500000 
276 1 0.759581 0.107192 0.500000 
277 1 0.769890 0.090283 0.500000 
278 1 0.779518 0.107484 0.500000 
279 1 0.789821 0.090571 0.500000 
280 1 0.799463 0.107765 0.500000 
281 1 0.809753 0.090852 0.500000 
282 1 0.819411 0.108037 0.500000 
283 1 0.829686 0.091122 0.500000 
284 1 0.839361 0.108298 0.500000 
285 1 0.849619 0.091381 0.500000 
286 1 0.859310 0.108541 0.500000 
287 1 0.869555 0.091617 0.500000 
288 1 0.879261 0.108755 0.500000 
289 1 0.889501 0.091822 0.500000 
290 1 0.899219 0.108941 0.500000 
291 1 0.909458 0.092002 0.500000 
292 1 0.919188 0.109112 0.500000 
293 1 0.929427 0.092171 0.500000 
294 1 0.939169 0.109270 0.500000 
295 1 0.949407 0.092323 0.500000 
296 1 0.959160 0.109410 0.500000 
297 1 0.969375 0.092475 0.500000 
298 1 0.979136 0.109550 0.500000 
299 1 0.989349 0.092617 0.500000 
300 1 0.999117 0.109681 0.500000 
301 1 0.010532 0.100598 0.500000 
302 1 0.020165 0.117663 0.500000 
303 1 0.030566 0.101214 0.500000 
304 1 0.040201 0.118287 0.500000 
305 1 0.050602 0.101839 0.500000 
306 1 0.060239 0.118920 0.500000 
307 1 0.070640 0.102476 0.500000 
308 1 0.080317 0.119590 0.500000 
309 1 0.090726 0.103162 0.500000 
310 1 0.100403 0.120282 0.500000 
311 1 0.110806 0.103850 0.500000 
312 1 0.120484 0.120985 0.500000 
313 1 0.130876 0.104550 0.500000 
314 1 0.140555 0.121700 0.500000 
315 1 0.150937 0.105265 0.500000 
316 1 0.160623 0.122427 0.500000 
317 1 0.170993 0.105984 0.500000 
318 1 0.180689 0.123161 0.500000 
319 1 0.191042 0.106698 0.500000 
320 1 0.200751 0.123893 0.500000 
321 1 0.211085 0.107406 0.500000 
322 1 0.220807 0.124623 0.500000 
323 1 0.231125 0.108115 0.500000 
324 1 0.240856 0.125360 0.500000 
325 1 0.251163 0.108838 0.500000 
326 1 0.260889 0.126112 0.500000 
327 1 0.271191 0.109576 0.500000 
328 1 0.280897 0.126883 0.500000 
329 1 0.291200 0.110333 0.500000 
330 1 0.300878 0.127667 0.500000 
331 1 0.311182 0.111106 0.500000 
332 1 0.320838 0.128455 0.500000 
333 1 0.331143 0.111888 0.500000 
334 1 0.340791 0.129235 0.500000 
335 1 0.351092 0.112665 0.500000 
336 1 0.360746 0.130008 0.500000 
337 1 0.371038 0.113429 0.500000 
338 1 0.380699 0.130777 0.500000 
339 1 0.390982 0.114179 0.500000 
340 1 0.400648 0.131545 0.500000 
341 1 0.410921 0.114922 0.500000 
342 1 0.420593 0.132306 0.500000 
343 1 0.430854 0.115656 0.500000 
344 1 0.440528 0.133061 0.500000 
345 1 0.450781 0.116380 0.500000 
346 1 0.460444 0.133808 0.500000 
347 1 0.470696 0.117096 0.500000 
348 1 0.480345 0.134536 0.500000 
349 1 0.490598 0.117796 0.500000 
350 1 0.500243 0.135230 0.500000 
351 1 0.510494 0.118471 0.500000 
352 1 0.520140 0.135891 0.500000 
353 1 0.530390 0.119112 0.500000 
354 1 0.540030 0.136526 0.500000 
355 1 0.550284 0.119725 0.500000 
356 1 0.559918 0.137127 0.500000 
357 1 0.570172 0.120313 0.500000 
358 1 0.579807 0.137692 0.500000 
359 1 0.590060 0.120867 0.500000 
360 1 0.599693 0.138227 0.500000 
361 1 0.609948 0.121387 0.500000 
362 1 0.619576 0.138730 0.500000 
363 1 0.629841 0.121874 0.500000 
364 1 0.639464 0.139202 0.500000 
365 1 0.649739 0.122328 0.500000 
366 1 0.659358 0.139646 0.500000 
367 1 0.669640 0.122747 0.500000 
368 1 0.679257 0.140058 0.500000 
369 1 0.689540 0.123133 0.500000 
370 1 0.699158 0.140431 0.500000 
371 1 0.709439 0.123485 0.500000 
372 1 0.719058 0.140764 0.500000 
373 1 0.729344 0.123809 0.500000 
374 1 0.738964 0.141065 0.500000 
375 1 0.749261 0.124115 0.500000 
376 1 0.758887 0.141348 0.500000 
377 1 0.769197 0.124408 0.500000 
378 1 0.778832 0.141623 0.500000 
379 1 0.789149 0.124690 0.500000 
380 1 0.798798 0.141892 0.500000 
381 1 0.809111 0.124962 0.500000 
382 1 0.818777 0.142152 0.500000 
383 1 0.829079 0.125221 0.500000 
384 1 0.838761 0.142395 0.500000 
385 1 0.849046 0.125464 0.500000 
386 1 0.858747 0.142613 0.500000 
387 1 0.869013 0.125682 0.500000 
388 1 0.878733 0.142802 0.500000 
389 1 0.888980 0.125872 0.500000 
390 1 0.898719 0.142975 0.500000 
391 1 0.908953 0.126046 0.500000 
392 1 0.918705 0.143141 0.500000 
393 1 0.928937 0.126210 0.500000 
394 1 0.938702 0.143289 0.500000 
395 1 0.948940 0.126349 0.500000 
396 1 0.958701 0.143428 0.500000 
397 1 0.968919 0.126487 0.500000 
398 1 0.978689 0.143555 0.500000 
399 1 0.988905 0.126616 0.500000 
400 1 0.998682 0.143674 0.500000 
401 1 0.009754 0.134110 0.500000 
402 1 0.019367 0.151171 0.500000 
403 1 0.029790 0.134729 0.500000 
404 1 0.039403 0.151799 0.500000 
405 1 0.049825 0.135360 0.500000 
406 1 0.059442 0.152437 0.500000 
407 1 0.069865 0.136003 0.500000 
408 1 0.079525 0.153109 0.500000 
409 1 0.089969 0.136699 0.500000 
410 1 0.099609 0.153807 0.500000 
411 1 0.110058 0.137400 0.500000 
412 1 0.119692 0.154521 0.500000 
413 1 0.130139 0.138116 0.500000 
414 1 0.139782 0.155257 0.500000 
415 1 0.150220 0.138849 0.500000 
416 1 0.159878 0.156018 0.500000 
417 1 0.170302 0.139599 0.500000 
418 1 0.179975 0.156796 0.500000 
419 1 0.190384 0.140358 0.500000 
420 1 0.200062 0.157576 0.500000 
421 1 0.210458 0.141114 0.500000 
422 1 0.220129 0.158352 0.500000 
423 1 0.230515 0.141870 0.500000 
424 1 0.240165 0.159130 0.500000 
425 1 0.250549 0.142632 0.500000 
426 1 0.260175 0.159922 0.500000 
427 1 0.270556 0.143413 0.500000 
428 1 0.280169 0.160728 0.500000 
429 1 0.290539 0.144207 0.500000 
430 1 0.300159 0.161538 0.500000 
431 1 0.310510 0.145003 0.500000 
432 1 0.320150 0.162345 0.500000 
433 1 0.330477 0.145793 0.500000 
434 1 0.340140 0.163149 0.500000 
435 1 0.350446 0.146581 0.500000 
436 1 0.360124 0.163953 0.500000 
437 1 0.370412 0.147371 0.500000 
438 1 0.380099 0.164754 0.500000 
439 1 0.390376 0.148161 0.500000 
440 1 0.400056 0.165556 0.500000 
441 1 0.410332 0.148946 0.500000 
442 1 0.419988 0.166362 0.500000 
443 1 0.430268 0.149728 0.500000 
444 1 0.439907 0.167159 0.500000 
445 1 0.450182 0.150503 0.500000 
446 1 0.459829 0.167932 0.500000 
447 1 0.470090 0.151253 0.500000 
448 1 0.479746 0.168686 0.500000 
449 1 0.489998 0.151971 0.500000 
450 1 0.499646 0.169429 0.500000 
451 1 0.509896 0.152668 0.500000 
452 1 0.519532 0.170145 0.500000 
453 1 0.529782 0.153342 0.500000 
454 1 0.539413 0.170818 0.500000 
455 1 0.549665 0.153973 0.500000 
456 1 0.559287 0.171445 0.500000 
457 1 0.569550 0.154559 0.500000 
458 1 0.579160 0.172022 0.500000 
459 1 0.589434 0.155108 0.500000 
460 1 0.599045 0.172549 0.500000 
461 1 0.609319 0.155617 0.500000 
462 1 0.618937 0.173032 0.500000 
463 1 0.629205 0.156090 0.500000 
464 1 0.638829 0.173474 0.500000 
465 1 0.649092 0.156537 0.500000 
466 1 0.658725 0.173882 0.500000 
467 1 0.668989 0.156964 0.500000 
468 1 0.678634 0.174278 0.500000 
469 1 0.688896 0.157367 0.500000 
470 1 0.698556 0.174666 0.500000 
471 1 0.708804 0.157733 0.500000 
472 1 0.718482 0.175026 0.500000 
473 1 0.728710 0.158049 0.500000 
474 1 0.738401 0.175332 0.500000 
475 1 0.748620 0.158325 0.500000 
476 1 0.758318 0.175587 0.500000 
477 1 0.768547 0.158582 0.500000 
478 1 0.778248 0.175814 0.500000 
479 1 0.788500 0.158834 0.500000 
480 1 0.798204 0.176040 0.500000 
481 1 0.808475 0.159086 0.500000 
482 1 0.818185 0.176267 0.500000 
483 1 0.828466 0.159328 0.500000 
484 1 0.838187 0.176485 0.500000 
485 1 0.848467 0.159549 0.500000 
486 1 0.858203 0.176678 0.500000 
487 1 0.868474 0.159739 0.500000 
488 1 0.878229 0.176847 0.500000 
489 1 0.888482 0.159907 0.500000 
490 1 0.898251 0.177005 0.500000 
491 1 0.908484 0.160069 0.500000 
492 1 0.918265 0.177152 0.500000 
493 1 0.928483 0.160221 0.500000 
494 1 0.938267 0.177293 0.500000 
495 1 0.948477 0.160370 0.500000 
496 1 0.958249 0.177440 0.500000 
497 1 0.968470 0.160496 0.500000 
498 1 0.978251 0.177553 0.500000 
499 1 0.988467 0.160611 0.500000 
500 1 0.998258 0.177659 0.500000 
501 1 0.008938 0.167610 0.500000 
502 1 0.018532 0.184668 0.500000 
503 1 0.028972 0.168234 0.500000 
504 1 0.038566 0.185299 0.500000 
505 1 0.049008 0.168868 0.500000 
506 1 0.058602 0.185942 0.500000 
507 1 0.069047 0.169517 0.500000 
508 1 0.078655 0.186604 0.500000 
509 1 0.089134 0.170209 0.500000 
510 1 0.098742 0.187321 0.500000 
511 1 0.109221 0.170921 0.500000 
512 1 0.118843 0.188059 0.500000 
513 1 0.129320 0.171658 0.500000 
514 1 0.138952 0.188823 0.500000 
515 1 0.149425 0.172424 0.500000 
516 1 0.159057 0.189606 0.500000 
517 1 0.169528 0.173211 0.500000 
518 1 0.179149 0.190406 0.500000 
519 1 0.189622 0.174005 0.500000 
520 1 0.199224 0.191220 0.500000 
521 1 0.209694 0.174800 0.500000 
522 1 0.219279 0.192046 0.500000 
523 1 0.229739 0.175601 0.500000 
524 1 0.239321 0.192883 0.500000 
525 1 0.249761 0.176413 0.500000 
526 1 0.259358 0.193723 0.500000 
527 1 0.269774 0.177234 0.500000 
528 1 0.279396 0.194557 0.500000 
529 1 0.289788 0.178058 0.500000 
530 1 0.299433 0.195383 0.500000 
531 1 0.309805 0.178880 0.500000 
532 1 0.319463 0.196203 0.500000 
533 1 0.329818 0.179697 0.500000 
534 1 0.339477 0.197026 0.500000 
535 1 0.349819 0.180508 0.500000 
536 1 0.359464 0.197863 0.500000 
537 1 0.369800 0.181321 0.500000 
538 1 0.379428 0.198719 0.500000 
539 1 0.389755 0.182144 0.500000 
540 1 0.399386 0.199586 0.500000 
541 1 0.409689 0.182975 0.500000 
542 1 0.419343 0.200448 0.500000 
543 1 0.429623 0.183800 0.500000 
544 1 0.439290 0.201304 0.500000 
545 1 0.449558 0.184608 0.500000 
546 1 0.459217 0.202152 0.500000 
547 1 0.469479 0.185409 0.500000 
548 1 0.479122 0.202981 0.500000 
549 1 0.489381 0.186196 0.500000 
550 1 0.499007 0.203784 0.500000 
551 1 0.509269 0.186951 0.500000 
552 1 0.518870 0.204541 0.500000 
553 1 0.529145 0.187663 0.500000 
554 1 0.538725 0.205234 0.500000 
555 1 0.549012 0.188328 0.500000 
556 1 0.558591 0.205858 0.500000 
557 1 0.568879 0.188934 0.500000 
558 1 0.578463 0.206425 0.500000 
559 1 0.588756 0.189484 0.500000 
560 1 0.598341 0.206947 0.500000 
561 1 0.608644 0.189994 0.500000 
562 1 0.618237 0.207428 0.500000 
563 1 0.628544 0.190460 0.500000 
564 1 0.638152 0.207878 0.500000 
565 1 0.648448 0.190872 0.500000 
566 1 0.658069 0.208275 0.500000 
567 1 0.668354 0.191239 0.500000 
568 1 0.677984 0.208605 0.500000 
569 1 0.688274 0.191591 0.500000 
570 1 0.697912 0.208908 0.500000 
571 1 0.708218 0.191952 0.500000 
572 1 0.717871 0.209229 0.500000 
573 1 0.728169 0.192302 0.500000 
574 1 0.737850 0.209557 0.500000 
575 1 0.748112 0.192601 0.500000 
576 1 0.757822 0.209848 0.500000 
577 1 0.768044 0.192840 0.500000 
578 1 0.777779 0.210073 0.500000 
579 1 0.787981 0.193041 0.500000 
580 1 0.797730 0.210251 0.500000 
581 1 0.807939 0.193236 0.500000 
582 1 0.817695 0.210415 0.500000 
583 1 0.827925 0.193432 0.500000 
584 1 0.837689 0.210578 0.500000 
585 1 0.847937 0.193619 0.500000 
586 1 0.857712 0.210735 0.500000 
587 1 0.867967 0.193789 0.500000 
588 1 0.877749 0.210892 0.500000 
589 1 0.888002 0.193948 0.500000 
590 1 0.897784 0.211040 0.500000 
591 1 0.908028 0.194093 0.500000 
592 1 0.917813 0.211165 0.500000 
593 1 0.928041 0.194223 0.500000 
594 1 0.937819 0.211307 0.500000 
595 1 0.948021 0.194385 0.500000 
596 1 0.957807 0.211443 0.500000 
597 1 0.968031 0.194496 0.500000 
598 1 0.977825 0.211543 0.500000 
599 1 0.988043 0.194599 0.500000 
600 1 0.997847 0.211634 0.500000 
601 1 0.008083 0.201103 0.500000 
602 1 0.017654 0.218157 0.500000 
603 1 0.028113 0.201727 0.500000 
604 1 0.037684 0.218790 0.500000 
605 1 0.048147 0.202367 0.500000 
606 1 0.057718 0.219436 0.500000 
607 1 0.068185 0.203017 0.500000 
608 1 0.077774 0.220114 0.500000 
609 1 0.088257 0.203713 0.500000 
610 1 0.097861 0.220844 0.500000 
611 1 0.108357 0.204459 0.500000 
612 1 0.117963 0.221605 0.500000 
613 1 0.128463 0.205217 0.500000 
614 1 0.138055 0.222367 0.500000 
615 1 0.148565 0.205992 0.500000 
616 1 0.158141 0.223160 0.500000 
617 1 0.168653 0.206788 0.500000 
618 1 0.178222 0.223994 0.500000 
619 1 0.188730 0.207616 0.500000 
620 1 0.198297 0.224864 0.500000 
621 1 0.208797 0.208469 0.500000 
622 1 0.218369 0.225742 0.500000 
623 1 0.228857 0.209329 0.500000 
624 1 0.238432 0.226603 0.500000 
625 1 0.248914 0.210183 0.500000 
626 1 0.258492 0.227445 0.500000 
627 1 0.268968 0.211020 0.500000 
628 1 0.278545 0.228280 0.500000 
629 1 0.289017 0.211845 0.500000 
630 1 0.298596 0.229127 0.500000 
631 1 0.309056 0.212674 0.500000 
632 1 0.318641 0.230002 0.500000 
633 1 0.329079 0.213520 0.500000 
634 1 0.338682 0.230910 0.500000 
635 1 0.349086 0.214391 0.500000 
636 1 0.358711 0.231834 0.500000 
637 1 0.369083 0.215287 0.500000 
638 1 0.378729 0.232761 0.500000 
639 1 0.389074 0.216188 0.500000 
640 1 0.398735 0.233678 0.500000 
641 1 0.409057 0.217087 0.500000 
642 1 0.418728 0.234589 0.500000 
643 1 0.429024 0.217977 0.500000 
644 1 0.438699 0.235507 0.500000 
645 1 0.448971 0.218860 0.500000 
646 1 0.458624 0.236438 0.500000 
647 1 0.468888 0.219740 0.500000 
648 1 0.478501 0.237370 0.500000 
649 1 0.488765 0.220604 0.500000 
650 1 0.498357 0.238247 0.500000 
651 1 0.508615 0.221422 0.500000 
652 1 0.518217 0.239030 0.500000 
653 1 0.528465 0.222159 0.500000 
654 1 0.538072 0.239745 0.500000 
655 1 0.548323 0.222812 0.500000 
656 1 0.557915 0.240394 0.500000 
657 1 0.568181 0.223399 0.500000 
658 1 0.577767 0.240946 0.500000 
659 1 0.588049 0.223924 0.500000 
660 1 0.597640 0.241411 0.500000 
661 1 0.607939 0.224393 0.500000 
662 1 0.617533 0.241829 0.500000 
663 1 0.627849 0.224841 0.500000 
664 1 0.637463 0.242230 0.500000 
665 1 0.647780 0.225278 0.500000 
666 1 0.657423 0.242643 0.500000 
667 1 0.667717 0.225665 0.500000 
668 1 0.677388 0.243030 0.500000 
669 1 0.687643 0.225974 0.500000 
670 1 0.697340 0.243325 0.500000 
671 1 0.707575 0.226231 0.500000 
672 1 0.717285 0.243552 0.500000 
673 1 0.727538 0.226503 0.500000 
674 1 0.737252 0.243778 0.500000 
675 1 0.747531 0.226797 0.500000 
676 1 0.757245 0.244029 0.500000 
677 1 0.767527 0.227066 0.500000 
678 1 0.777244 0.244262 0.500000 
679 1 0.787507 0.227275 0.500000 
680 1 0.797235 0.244445 0.500000 
681 1 0.807477 0.227433 0.500000 
682 1 0.817224 0.244581 0.500000 
683 1 0.827459 0.227569 0.500000 
684 1 0.837227 0.244693 0.500000 
685 1 0.847467 0.227702 0.500000 
686 1 0.857253 0.244810 0.500000 
687 1 0.867499 0.227842 0.500000 
688 1 0.877290 0.244941 0.500000 
689 1 0.887535 0.227988 0.500000 
690 1 0.897322 0.245066 0.500000 
691 1 0.907563 0.228115 0.500000 
692 1 0.917342 0.245183 0.500000 
693 1 0.927578 0.228240 0.500000 
694 1 0.937350 0.245329 0.500000 
695 1 0.947580 0.228392 0.500000 
696 1 0.957383 0.245436 0.500000 
697 1 0.967605 0.228489 0.500000 
698 1 0.977417 0.245522 0.500000 
699 1 0.987634 0.228577 0.500000 
700 1 0.997455 0.245600 0.500000 
701 1 0.007189 0.234587 0.500000 
702 1 0.016737 0.251640 0.500000 
703 1 0.027214 0.235215 0.500000 
704 1 0.036760 0.252274 0.500000 
705 1 0.047243 0.235854 0.500000 
706 1 0.056787 0.252921 0.500000 
707 1 0.067275 0.236508 0.500000 
708 1 0.076880 0.253623 0.500000 
709 1 0.087369 0.237225 0.500000 
710 1 0.096939 0.254343 0.500000 
711 1 0.107456 0.237977 0.500000 
712 1 0.116998 0.255102 0.500000 
713 1 0.127532 0.238739 0.500000 
714 1 0.137068 0.255884 0.500000 
715 1 0.147612 0.239524 0.500000 
716 1 0.157160 0.256712 0.500000 
717 1 0.167700 0.240358 0.500000 
718 1 0.177245 0.257582 0.500000 
719 1 0.187781 0.241233 0.500000 
720 1 0.197301 0.258464 0.500000 
721 1 0.207850 0.242117 0.500000 
722 1 0.217351 0.259343 0.500000 
723 1 0.227909 0.242989 0.500000 
724 1 0.237424 0.260219 0.500000 
725 1 0.247968 0.243842 0.500000 
726 1 0.257529 0.261097 0.500000 
727 1 0.268038 0.244699 0.500000 
728 1 0.277647 0.261993 0.500000 
729 1 0.288118 0.245571 0.500000 
730 1 0.297748 0.262915 0.500000 
731 1 0.308198 0.246474 0.500000 
732 1 0.317817 0.263856 0.500000 
733 1 0.328261 0.247400 0.500000 
734 1 0.337872 0.264804 0.500000 
735 1 0.348307 0.248341 0.500000 
736 1 0.357920 0.265750 0.500000 
737 1 0.368341 0.249277 0.500000 
738 1 0.377950 0.266713 0.500000 
739 1 0.388364 0.250207 0.500000 
740 1 0.397947 0.267682 0.500000 
741 1 0.408369 0.251147 0.500000 
742 1 0.417907 0.268683 0.500000 
743 1 0.428339 0.252104 0.500000 
744 1 0.437798 0.269736 0.500000 
745 1 0.448256 0.253101 0.500000 
746 1 0.457655 0.270788 0.500000 
747 1 0.468126 0.254103 0.500000 
748 1 0.477537 0.271751 0.500000 
749 1 0.487995 0.255028 0.500000 
750 1 0.497416 0.272655 0.500000 
751 1 0.507875 0.255860 0.500000 
752 1 0.517262 0.273521 0.500000 
753 1 0.527734 0.256640 0.500000 
754 1 0.537118 0.274264 0.500000 
755 1 0.547585 0.257354 0.500000 
756 1 0.557006 0.274905 0.500000 
757 1 0.567447 0.257964 0.500000 
758 1 0.576892 0.275504 0.500000 
759 1 0.587303 0.258478 0.500000 
760 1 0.596771 0.275994 0.500000 
761 1 0.607167 0.258898 0.500000 
762 1 0.616651 0.276351 0.500000 
763 1 0.627070 0.259239 0.500000 
764 1 0.636551 0.276634 0.500000 
765 1 0.647020 0.259585 0.500000 
766 1 0.656518 0.276905 0.500000 
767 1 0.667019 0.259968 0.500000 
768 1 0.676550 0.277249 0.500000 
769 1 0.687034 0.260345 0.500000 
770 1 0.696614 0.277613 0.500000 
771 1 0.707028 0.260641 0.500000 
772 1 0.716663 0.277903 0.500000 
773 1 0.727010 0.260849 0.500000 
774 1 0.736695 0.278107 0.500000 
775 1 0.746997 0.261046 0.500000 
776 1 0.756722 0.278285 0.500000 
777 1 0.766996 0.261255 0.500000 
778 1 0.776745 0.278463 0.500000 
779 1 0.786993 0.261444 0.500000 
780 1 0.796758 0.278608 0.500000 
781 1 0.806986 0.261587 0.500000 
782 1 0.816765 0.278708 0.500000 
783 1 0.826986 0.261695 0.500000 
784 1 0.836776 0.278786 0.500000 
785 1 0.847006 0.261793 0.500000 
786 1 0.856797 0.278879 0.500000 
787 1 0.867038 0.261906 0.500000 
788 1 0.876823 0.278987 0.500000 
789 1 0.887073 0.262023 0.500000 
790 1 0.896856 0.279084 0.500000 
791 1 0.907105 0.262129 0.500000 
792 1 0.916886 0.279204 0.500000 
793 1 0.927125 0.262266 0.500000 
794 1 0.936920 0.279331 0.500000 
795 1 0.947159 0.262387 0.500000 
796 1 0.956982 0.279417 0.500000 
797 1 0.967200 0.262468 0.500000 
798 1 0.977036 0.279488 0.500000 
799 1 0.987245 0.262544 0.500000 
800 1 0.997089 0.279555 0.500000 
801 1 0.006256 0.268068 0.500000 
802 1 0.015779 0.285121 0.500000 
803 1 0.026272 0.268696 0.500000 
804 1 0.035792 0.285753 0.500000 
805 1 0.046292 0.269335 0.500000 
806 1 0.055810 0.286400 0.500000 
807 1 0.066319 0.269991 0.500000 
808 1 0.075889 0.287103 0.500000 
809 1 0.086412 0.270727 0.500000 
810 1 0.095933 0.287826 0.500000 
811 1 0.106460 0.271453 0.500000 
812 1 0.115973 0.288582 0.500000 
813 1 0.126523 0.272238 0.500000 
814 1 0.136039 0.289403 0.500000 
815 1 0.146605 0.273059 0.500000 
816 1 0.156099 0.290246 0.500000 
817 1 0.166682 0.273917 0.500000 
818 1 0.176143 0.291104 0.500000 
819 1 0.186729 0.274792 0.500000 
820 1 0.196215 0.291980 0.500000 
821 1 0.206782 0.275671 0.500000 
822 1 0.216340 0.292876 0.500000 
823 1 0.226887 0.276565 0.500000 
824 1 0.236477 0.293795 0.500000 
825 1 0.247025 0.277463 0.500000 
826 1 0.256584 0.294716 0.500000 
827 1 0.267152 0.278378 0.500000 
828 1 0.276686 0.295661 0.500000 
829 1 0.287244 0.279310 0.500000 
830 1 0.296794 0.296621 0.500000 
831 1 0.307325 0.280265 0.500000 
832 1 0.316888 0.297616 0.500000 
833 1 0.327400 0.281221 0.500000 
834 1 0.336936 0.298626 0.500000 
835 1 0.347458 0.282204 0.500000 
836 1 0.356973 0.299635 0.500000 
837 1 0.367481 0.283194 0.500000 
838 1 0.377001 0.300646 0.500000 
839 1 0.387488 0.284193 0.500000 
840 1 0.396959 0.301733 0.500000 
841 1 0.407441 0.285232 0.500000 
842 1 0.416869 0.302886 0.500000 
843 1 0.427322 0.286339 0.500000 
844 1 0.436777 0.303991 0.500000 
845 1 0.447197 0.287418 0.500000 
846 1 0.456675 0.305044 0.500000 
847 1 0.467090 0.288404 0.500000 
848 1 0.476526 0.306074 0.500000 
849 1 0.486954 0.289373 0.500000 
850 1 0.496379 0.307010 0.500000 
851 1 0.506792 0.290296 0.500000 
852 1 0.516274 0.307825 0.500000 
853 1 0.526657 0.291088 0.500000 
854 1 0.536151 0.308620 0.500000 
855 1 0.546523 0.291779 0.500000 
856 1 0.555999 0.309298 0.500000 
857 1 0.566403 0.292409 0.500000 
858 1 0.575880 0.309823 0.500000 
859 1 0.586342 0.292966 0.500000 
860 1 0.595819 0.310356 0.500000 
861 1 0.606268 0.293448 0.500000 
862 1 0.615802 0.310828 0.500000 
863 1 0.626166 0.293786 0.500000 
864 1 0.635749 0.311152 0.500000 
865 1 0.646083 0.293990 0.500000 
866 1 0.655680 0.311328 0.500000 
867 1 0.666052 0.294204 0.500000 
868 1 0.675672 0.311468 0.500000 
869 1 0.686106 0.294494 0.500000 
870 1 0.695739 0.311725 0.500000 
871 1 0.706195 0.294839 0.500000 
872 1 0.715851 0.312032 0.500000 
873 1 0.726282 0.295117 0.500000 
874 1 0.735952 0.312300 0.500000 
875 1 0.746353 0.295317 0.500000 
876 1 0.756046 0.312486 0.500000 
877 1 0.766416 0.295485 0.500000 
878 1 0.776125 0.312647 0.500000 
879 1 0.786469 0.295637 0.500000 
880 1 0.796202 0.312772 0.500000 
881 1 0.806516 0.295742 0.500000 