ITEM: TIMESTEP
4900
ITEM: NUMBER OF ATOMS
2850
ITEM: BOX BOUNDS ss ss pp
-28.0536 28.3253 
-28.9988 28.9984 
-0.5 0.5 
ITEM: ATOMS id type xs ys zs
1 1 0.012661 0.000000 0.500000 
2 1 0.022340 0.017073 0.500000 
3 1 0.032688 0.000597 0.500000 
4 1 0.042369 0.017677 0.500000 
5 1 0.052715 0.001202 0.500000 
6 1 0.062397 0.018289 0.500000 
7 1 0.072742 0.001814 0.500000 
8 1 0.082426 0.018911 0.500000 
9 1 0.092767 0.002433 0.500000 
10 1 0.102455 0.019539 0.500000 
11 1 0.112794 0.003060 0.500000 
12 1 0.122484 0.020177 0.500000 
13 1 0.132817 0.003697 0.500000 
14 1 0.142511 0.020822 0.500000 
15 1 0.152841 0.004338 0.500000 
16 1 0.162536 0.021475 0.500000 
17 1 0.172861 0.004988 0.500000 
18 1 0.182559 0.022136 0.500000 
19 1 0.192879 0.005643 0.500000 
20 1 0.202579 0.022803 0.500000 
21 1 0.212895 0.006305 0.500000 
22 1 0.222596 0.023475 0.500000 
23 1 0.232906 0.006973 0.500000 
24 1 0.242610 0.024155 0.500000 
25 1 0.252912 0.007645 0.500000 
26 1 0.262618 0.024839 0.500000 
27 1 0.272914 0.008319 0.500000 
28 1 0.282622 0.025527 0.500000 
29 1 0.292911 0.008997 0.500000 
30 1 0.302619 0.026217 0.500000 
31 1 0.312901 0.009676 0.500000 
32 1 0.322610 0.026908 0.500000 
33 1 0.332885 0.010356 0.500000 
34 1 0.342593 0.027600 0.500000 
35 1 0.352861 0.011033 0.500000 
36 1 0.362570 0.028289 0.500000 
37 1 0.372830 0.011707 0.500000 
38 1 0.382537 0.028974 0.500000 
39 1 0.392791 0.012376 0.500000 
40 1 0.402497 0.029655 0.500000 
41 1 0.412744 0.013039 0.500000 
42 1 0.422448 0.030326 0.500000 
43 1 0.432688 0.013694 0.500000 
44 1 0.442390 0.030989 0.500000 
45 1 0.452624 0.014337 0.500000 
46 1 0.462324 0.031639 0.500000 
47 1 0.472553 0.014968 0.500000 
48 1 0.482250 0.032276 0.500000 
49 1 0.492474 0.015584 0.500000 
50 1 0.502167 0.032896 0.500000 
51 1 0.512388 0.016184 0.500000 
52 1 0.522078 0.033498 0.500000 
53 1 0.532295 0.016766 0.500000 
54 1 0.541983 0.034081 0.500000 
55 1 0.552198 0.017330 0.500000 
56 1 0.561882 0.034643 0.500000 
57 1 0.572095 0.017873 0.500000 
58 1 0.581777 0.035184 0.500000 
59 1 0.591989 0.018396 0.500000 
60 1 0.601668 0.035702 0.500000 
61 1 0.611880 0.018896 0.500000 
62 1 0.621558 0.036195 0.500000 
63 1 0.631769 0.019373 0.500000 
64 1 0.641446 0.036666 0.500000 
65 1 0.651657 0.019829 0.500000 
66 1 0.661334 0.037110 0.500000 
67 1 0.671546 0.020261 0.500000 
68 1 0.681223 0.037533 0.500000 
69 1 0.691436 0.020670 0.500000 
70 1 0.701115 0.037931 0.500000 
71 1 0.711328 0.021058 0.500000 
72 1 0.721007 0.038307 0.500000 
73 1 0.731222 0.021423 0.500000 
74 1 0.740905 0.038660 0.500000 
75 1 0.751120 0.021768 0.500000 
76 1 0.760806 0.038993 0.500000 
77 1 0.771021 0.022094 0.500000 
78 1 0.780711 0.039305 0.500000 
79 1 0.790927 0.022399 0.500000 
80 1 0.800620 0.039597 0.500000 
81 1 0.810837 0.022687 0.500000 
82 1 0.820536 0.039873 0.500000 
83 1 0.830751 0.022958 0.500000 
84 1 0.840456 0.040130 0.500000 
85 1 0.850671 0.023211 0.500000 
86 1 0.860382 0.040369 0.500000 
87 1 0.870595 0.023449 0.500000 
88 1 0.880312 0.040595 0.500000 
89 1 0.890525 0.023674 0.500000 
90 1 0.900248 0.040807 0.500000 
91 1 0.910459 0.023884 0.500000 
92 1 0.920188 0.041005 0.500000 
93 1 0.930398 0.024080 0.500000 
94 1 0.940134 0.041192 0.500000 
95 1 0.950341 0.024267 0.500000 
96 1 0.960084 0.041368 0.500000 
97 1 0.970290 0.024443 0.500000 
98 1 0.980040 0.041531 0.500000 
99 1 0.990243 0.024606 0.500000 
100 1 1.000000 0.041686 0.500000 
101 1 0.011983 0.033545 0.500000 
102 1 0.021650 0.050615 0.500000 
103 1 0.032014 0.034148 0.500000 
104 1 0.041680 0.051227 0.500000 
105 1 0.052044 0.034760 0.500000 
106 1 0.061715 0.051847 0.500000 
107 1 0.072075 0.035381 0.500000 
108 1 0.081753 0.052483 0.500000 
109 1 0.092107 0.036012 0.500000 
110 1 0.101789 0.053128 0.500000 
111 1 0.112138 0.036650 0.500000 
112 1 0.121825 0.053780 0.500000 
113 1 0.132168 0.037297 0.500000 
114 1 0.141858 0.054441 0.500000 
115 1 0.152197 0.037952 0.500000 
116 1 0.161890 0.055112 0.500000 
117 1 0.172226 0.038617 0.500000 
118 1 0.181919 0.055789 0.500000 
119 1 0.192251 0.039288 0.500000 
120 1 0.201944 0.056474 0.500000 
121 1 0.212274 0.039967 0.500000 
122 1 0.221965 0.057167 0.500000 
123 1 0.232293 0.040654 0.500000 
124 1 0.241983 0.057866 0.500000 
125 1 0.252309 0.041345 0.500000 
126 1 0.261994 0.058573 0.500000 
127 1 0.272318 0.042042 0.500000 
128 1 0.281999 0.059283 0.500000 
129 1 0.292324 0.042743 0.500000 
130 1 0.301999 0.059998 0.500000 
131 1 0.312323 0.043447 0.500000 
132 1 0.321991 0.060713 0.500000 
133 1 0.332314 0.044150 0.500000 
134 1 0.341976 0.061429 0.500000 
135 1 0.352297 0.044856 0.500000 
136 1 0.361954 0.062147 0.500000 
137 1 0.372273 0.045557 0.500000 
138 1 0.381922 0.062858 0.500000 
139 1 0.392240 0.046254 0.500000 
140 1 0.401881 0.063565 0.500000 
141 1 0.412198 0.046944 0.500000 
142 1 0.421832 0.064263 0.500000 
143 1 0.432147 0.047626 0.500000 
144 1 0.441773 0.064951 0.500000 
145 1 0.452087 0.048297 0.500000 
146 1 0.461706 0.065626 0.500000 
147 1 0.472018 0.048954 0.500000 
148 1 0.481632 0.066287 0.500000 
149 1 0.491940 0.049595 0.500000 
150 1 0.501551 0.066928 0.500000 
151 1 0.511855 0.050220 0.500000 
152 1 0.521463 0.067551 0.500000 
153 1 0.531762 0.050823 0.500000 
154 1 0.541369 0.068151 0.500000 
155 1 0.551663 0.051406 0.500000 
156 1 0.561272 0.068727 0.500000 
157 1 0.571560 0.051966 0.500000 
158 1 0.581170 0.069280 0.500000 
159 1 0.591452 0.052503 0.500000 
160 1 0.601065 0.069806 0.500000 
161 1 0.611341 0.053013 0.500000 
162 1 0.620959 0.070305 0.500000 
163 1 0.631230 0.053499 0.500000 
164 1 0.640853 0.070777 0.500000 
165 1 0.651117 0.053960 0.500000 
166 1 0.660749 0.071226 0.500000 
167 1 0.671006 0.054396 0.500000 
168 1 0.680647 0.071648 0.500000 
169 1 0.690897 0.054806 0.500000 
170 1 0.700546 0.072045 0.500000 
171 1 0.710789 0.055192 0.500000 
172 1 0.720448 0.072417 0.500000 
173 1 0.730685 0.055554 0.500000 
174 1 0.740355 0.072765 0.500000 
175 1 0.750586 0.055894 0.500000 
176 1 0.760266 0.073090 0.500000 
177 1 0.770490 0.056213 0.500000 
178 1 0.780181 0.073397 0.500000 
179 1 0.790400 0.056511 0.500000 
180 1 0.800100 0.073681 0.500000 
181 1 0.810316 0.056789 0.500000 
182 1 0.820024 0.073946 0.500000 
183 1 0.830238 0.057049 0.500000 
184 1 0.839954 0.074196 0.500000 
185 1 0.850164 0.057294 0.500000 
186 1 0.859889 0.074428 0.500000 
187 1 0.870095 0.057522 0.500000 
188 1 0.879827 0.074647 0.500000 
189 1 0.890032 0.057734 0.500000 
190 1 0.899770 0.074850 0.500000 
191 1 0.909975 0.057934 0.500000 
192 1 0.919717 0.075040 0.500000 
193 1 0.929922 0.058120 0.500000 
194 1 0.939668 0.075220 0.500000 
195 1 0.949875 0.058294 0.500000 
196 1 0.959621 0.075390 0.500000 
197 1 0.969833 0.058458 0.500000 
198 1 0.979588 0.075542 0.500000 
199 1 0.989796 0.058613 0.500000 
200 1 0.999557 0.075685 0.500000 
201 1 0.011275 0.067077 0.500000 
202 1 0.020924 0.084144 0.500000 
203 1 0.031308 0.067688 0.500000 
204 1 0.040959 0.084763 0.500000 
205 1 0.051342 0.068307 0.500000 
206 1 0.060994 0.085390 0.500000 
207 1 0.071376 0.068936 0.500000 
208 1 0.081041 0.086039 0.500000 
209 1 0.091424 0.069590 0.500000 
210 1 0.101088 0.086706 0.500000 
211 1 0.111466 0.070251 0.500000 
212 1 0.121133 0.087382 0.500000 
213 1 0.131504 0.070918 0.500000 
214 1 0.141174 0.088063 0.500000 
215 1 0.151539 0.071594 0.500000 
216 1 0.161210 0.088754 0.500000 
217 1 0.171572 0.072279 0.500000 
218 1 0.181245 0.089453 0.500000 
219 1 0.191601 0.072969 0.500000 
220 1 0.201274 0.090159 0.500000 
221 1 0.211626 0.073669 0.500000 
222 1 0.221298 0.090874 0.500000 
223 1 0.231646 0.074377 0.500000 
224 1 0.241317 0.091598 0.500000 
225 1 0.251660 0.075092 0.500000 
226 1 0.261329 0.092329 0.500000 
227 1 0.271669 0.075812 0.500000 
228 1 0.281334 0.093064 0.500000 
229 1 0.291670 0.076537 0.500000 
230 1 0.301333 0.093803 0.500000 
231 1 0.311666 0.077265 0.500000 
232 1 0.321324 0.094546 0.500000 
233 1 0.331653 0.077994 0.500000 
234 1 0.341306 0.095291 0.500000 
235 1 0.351632 0.078725 0.500000 
236 1 0.361281 0.096034 0.500000 
237 1 0.371603 0.079452 0.500000 
238 1 0.381247 0.096774 0.500000 
239 1 0.391565 0.080175 0.500000 
240 1 0.401203 0.097507 0.500000 
241 1 0.411518 0.080891 0.500000 
242 1 0.421151 0.098231 0.500000 
243 1 0.431462 0.081597 0.500000 
244 1 0.441089 0.098944 0.500000 
245 1 0.451398 0.082290 0.500000 
246 1 0.461021 0.099640 0.500000 
247 1 0.471327 0.082968 0.500000 
248 1 0.480946 0.100322 0.500000 
249 1 0.491248 0.083629 0.500000 
250 1 0.500865 0.100981 0.500000 
251 1 0.511163 0.084269 0.500000 
252 1 0.520778 0.101618 0.500000 
253 1 0.531074 0.084889 0.500000 
254 1 0.540689 0.102232 0.500000 
255 1 0.550981 0.085482 0.500000 
256 1 0.560595 0.102817 0.500000 
257 1 0.570885 0.086051 0.500000 
258 1 0.580500 0.103376 0.500000 
259 1 0.590785 0.086594 0.500000 
260 1 0.600405 0.103907 0.500000 
261 1 0.610684 0.087108 0.500000 
262 1 0.620309 0.104408 0.500000 
263 1 0.630584 0.087594 0.500000 
264 1 0.640214 0.104881 0.500000 
265 1 0.650484 0.088053 0.500000 
266 1 0.660122 0.105324 0.500000 
267 1 0.670387 0.088488 0.500000 
268 1 0.680032 0.105744 0.500000 
269 1 0.690293 0.088895 0.500000 
270 1 0.699946 0.106134 0.500000 
271 1 0.710202 0.089276 0.500000 
272 1 0.719863 0.106502 0.500000 
273 1 0.730114 0.089634 0.500000 
274 1 0.739783 0.106845 0.500000 
275 1 0.750030 0.089968 0.500000 
276 1 0.759708 0.107164 0.500000 
277 1 0.769949 0.090281 0.500000 
278 1 0.779636 0.107464 0.500000 
279 1 0.789873 0.090572 0.500000 
280 1 0.799568 0.107742 0.500000 
281 1 0.809801 0.090843 0.500000 
282 1 0.819504 0.108001 0.500000 
283 1 0.829733 0.091098 0.500000 
284 1 0.839445 0.108245 0.500000 
285 1 0.849671 0.091336 0.500000 
286 1 0.859390 0.108472 0.500000 
287 1 0.869612 0.091559 0.500000 
288 1 0.879337 0.108685 0.500000 
289 1 0.889556 0.091768 0.500000 
290 1 0.899288 0.108883 0.500000 
291 1 0.909504 0.091962 0.500000 
292 1 0.919241 0.109071 0.500000 
293 1 0.929456 0.092146 0.500000 
294 1 0.939199 0.109250 0.500000 
295 1 0.949407 0.092323 0.500000 
296 1 0.959160 0.109410 0.500000 
297 1 0.969375 0.092475 0.500000 
298 1 0.979136 0.109550 0.500000 
299 1 0.989349 0.092617 0.500000 
300 1 0.999117 0.109681 0.500000 
301 1 0.010532 0.100598 0.500000 
302 1 0.020165 0.117663 0.500000 
303 1 0.030566 0.101214 0.500000 
304 1 0.040201 0.118287 0.500000 
305 1 0.050602 0.101839 0.500000 
306 1 0.060239 0.118920 0.500000 
307 1 0.070640 0.102476 0.500000 
308 1 0.080291 0.119582 0.500000 
309 1 0.090695 0.103149 0.500000 
310 1 0.100344 0.120268 0.500000 
311 1 0.110745 0.103831 0.500000 
312 1 0.120394 0.120963 0.500000 
313 1 0.130792 0.104520 0.500000 
314 1 0.140443 0.121665 0.500000 
315 1 0.150835 0.105216 0.500000 
316 1 0.160487 0.122379 0.500000 
317 1 0.170874 0.105923 0.500000 
318 1 0.180527 0.123100 0.500000 
319 1 0.190909 0.106637 0.500000 
320 1 0.200562 0.123831 0.500000 
321 1 0.210938 0.107360 0.500000 
322 1 0.220591 0.124571 0.500000 
323 1 0.230961 0.108091 0.500000 
324 1 0.240615 0.125320 0.500000 
325 1 0.250980 0.108832 0.500000 
326 1 0.260633 0.126078 0.500000 
327 1 0.270990 0.109579 0.500000 
328 1 0.280643 0.126842 0.500000 
329 1 0.290993 0.110330 0.500000 
330 1 0.300644 0.127611 0.500000 
331 1 0.310988 0.111086 0.500000 
332 1 0.320637 0.128383 0.500000 
333 1 0.330976 0.111844 0.500000 
334 1 0.340622 0.129156 0.500000 
335 1 0.350956 0.112603 0.500000 
336 1 0.360598 0.129930 0.500000 
337 1 0.370926 0.113359 0.500000 
338 1 0.380564 0.130700 0.500000 
339 1 0.390886 0.114110 0.500000 
340 1 0.400520 0.131463 0.500000 
341 1 0.410838 0.114853 0.500000 
342 1 0.420467 0.132216 0.500000 
343 1 0.430781 0.115587 0.500000 
344 1 0.440406 0.132956 0.500000 
345 1 0.450715 0.116304 0.500000 
346 1 0.460336 0.133678 0.500000 
347 1 0.470642 0.117005 0.500000 
348 1 0.480260 0.134381 0.500000 
349 1 0.490563 0.117686 0.500000 
350 1 0.500180 0.135060 0.500000 
351 1 0.510479 0.118342 0.500000 
352 1 0.520096 0.135711 0.500000 
353 1 0.530393 0.118974 0.500000 
354 1 0.540009 0.136336 0.500000 
355 1 0.550304 0.119579 0.500000 
356 1 0.559920 0.136931 0.500000 
357 1 0.570213 0.120155 0.500000 
358 1 0.579830 0.137495 0.500000 
359 1 0.590120 0.120701 0.500000 
360 1 0.599740 0.138027 0.500000 
361 1 0.610029 0.121220 0.500000 
362 1 0.619654 0.138528 0.500000 
363 1 0.629939 0.121705 0.500000 
364 1 0.639570 0.138997 0.500000 
365 1 0.649852 0.122162 0.500000 
366 1 0.659489 0.139438 0.500000 
367 1 0.669765 0.122590 0.500000 
368 1 0.679411 0.139850 0.500000 
369 1 0.689682 0.122993 0.500000 
370 1 0.699337 0.140236 0.500000 
371 1 0.709603 0.123368 0.500000 
372 1 0.719267 0.140596 0.500000 
373 1 0.729529 0.123721 0.500000 
374 1 0.739202 0.140932 0.500000 
375 1 0.749459 0.124048 0.500000 
376 1 0.759140 0.141246 0.500000 
377 1 0.769392 0.124354 0.500000 
378 1 0.779081 0.141538 0.500000 
379 1 0.789328 0.124640 0.500000 
380 1 0.799025 0.141810 0.500000 
381 1 0.809268 0.124906 0.500000 
382 1 0.818972 0.142064 0.500000 
383 1 0.829212 0.125153 0.500000 
384 1 0.838924 0.142299 0.500000 
385 1 0.849161 0.125385 0.500000 
386 1 0.858879 0.142520 0.500000 
387 1 0.869111 0.125603 0.500000 
388 1 0.878837 0.142727 0.500000 
389 1 0.889065 0.125805 0.500000 
390 1 0.898797 0.142919 0.500000 
391 1 0.909021 0.125995 0.500000 
392 1 0.918762 0.143102 0.500000 
393 1 0.928980 0.126175 0.500000 
394 1 0.938728 0.143275 0.500000 
395 1 0.948940 0.126349 0.500000 
396 1 0.958701 0.143428 0.500000 
397 1 0.968919 0.126487 0.500000 
398 1 0.978689 0.143555 0.500000 
399 1 0.988905 0.126616 0.500000 
400 1 0.998682 0.143674 0.500000 
401 1 0.009754 0.134110 0.500000 
402 1 0.019367 0.151171 0.500000 
403 1 0.029790 0.134729 0.500000 
404 1 0.039403 0.151799 0.500000 
405 1 0.049825 0.135360 0.500000 
406 1 0.059442 0.152437 0.500000 
407 1 0.069865 0.136003 0.500000 
408 1 0.079498 0.153111 0.500000 
409 1 0.089926 0.136695 0.500000 
410 1 0.099556 0.153816 0.500000 
411 1 0.109982 0.137395 0.500000 
412 1 0.119612 0.154529 0.500000 
413 1 0.130034 0.138103 0.500000 
414 1 0.139665 0.155251 0.500000 
415 1 0.150084 0.138821 0.500000 
416 1 0.159717 0.155986 0.500000 
417 1 0.170129 0.139550 0.500000 
418 1 0.179764 0.156729 0.500000 
419 1 0.190170 0.140286 0.500000 
420 1 0.199806 0.157484 0.500000 
421 1 0.210208 0.141037 0.500000 
422 1 0.219845 0.158252 0.500000 
423 1 0.230238 0.141794 0.500000 
424 1 0.239877 0.159028 0.500000 
425 1 0.250263 0.142562 0.500000 
426 1 0.259903 0.159815 0.500000 
427 1 0.270280 0.143337 0.500000 
428 1 0.279920 0.160609 0.500000 
429 1 0.290289 0.144119 0.500000 
430 1 0.299928 0.161411 0.500000 
431 1 0.310289 0.144905 0.500000 
432 1 0.319927 0.162215 0.500000 
433 1 0.330280 0.145695 0.500000 
434 1 0.339915 0.163023 0.500000 
435 1 0.350261 0.146485 0.500000 
436 1 0.359894 0.163829 0.500000 
437 1 0.370232 0.147273 0.500000 
438 1 0.379861 0.164635 0.500000 
439 1 0.390195 0.148058 0.500000 
440 1 0.399820 0.165433 0.500000 
441 1 0.410147 0.148832 0.500000 
442 1 0.419768 0.166218 0.500000 
443 1 0.430090 0.149595 0.500000 
444 1 0.439708 0.166989 0.500000 
445 1 0.450025 0.150339 0.500000 
446 1 0.459640 0.167737 0.500000 
447 1 0.469953 0.151065 0.500000 
448 1 0.479565 0.168463 0.500000 
449 1 0.489876 0.151765 0.500000 
450 1 0.499485 0.169162 0.500000 
451 1 0.509793 0.152441 0.500000 
452 1 0.519402 0.169833 0.500000 
453 1 0.529708 0.153088 0.500000 
454 1 0.539319 0.170467 0.500000 
455 1 0.549622 0.153702 0.500000 
456 1 0.559235 0.171070 0.500000 
457 1 0.569536 0.154284 0.500000 
458 1 0.579152 0.171636 0.500000 
459 1 0.589450 0.154834 0.500000 
460 1 0.599073 0.172167 0.500000 
461 1 0.609366 0.155348 0.500000 
462 1 0.618994 0.172666 0.500000 
463 1 0.629285 0.155832 0.500000 
464 1 0.638920 0.173131 0.500000 
465 1 0.649208 0.156285 0.500000 
466 1 0.658850 0.173567 0.500000 
467 1 0.669134 0.156708 0.500000 
468 1 0.678783 0.173972 0.500000 
469 1 0.689063 0.157104 0.500000 
470 1 0.698721 0.174350 0.500000 
471 1 0.708997 0.157472 0.500000 
472 1 0.718663 0.174701 0.500000 
473 1 0.728934 0.157816 0.500000 
474 1 0.738608 0.175029 0.500000 
475 1 0.748876 0.158138 0.500000 
476 1 0.758559 0.175334 0.500000 
477 1 0.768824 0.158436 0.500000 
478 1 0.778515 0.175619 0.500000 
479 1 0.788774 0.158714 0.500000 
480 1 0.798473 0.175882 0.500000 
481 1 0.808726 0.158973 0.500000 
482 1 0.818434 0.176129 0.500000 
483 1 0.828682 0.159215 0.500000 
484 1 0.838398 0.176357 0.500000 
485 1 0.848641 0.159439 0.500000 
486 1 0.858365 0.176570 0.500000 
487 1 0.868604 0.159648 0.500000 
488 1 0.878335 0.176768 0.500000 
489 1 0.888569 0.159844 0.500000 
490 1 0.898308 0.176953 0.500000 
491 1 0.908537 0.160027 0.500000 
492 1 0.918284 0.177128 0.500000 
493 1 0.928508 0.160202 0.500000 
494 1 0.938264 0.177298 0.500000 
495 1 0.948477 0.160370 0.500000 
496 1 0.958249 0.177440 0.500000 
497 1 0.968470 0.160496 0.500000 
498 1 0.978251 0.177553 0.500000 
499 1 0.988467 0.160611 0.500000 
500 1 0.998258 0.177659 0.500000 
501 1 0.008938 0.167610 0.500000 
502 1 0.018532 0.184668 0.500000 
503 1 0.028972 0.168234 0.500000 
504 1 0.038566 0.185299 0.500000 
505 1 0.049008 0.168868 0.500000 
506 1 0.058602 0.185942 0.500000 
507 1 0.069047 0.169517 0.500000 
508 1 0.078659 0.186624 0.500000 
509 1 0.089111 0.170224 0.500000 
510 1 0.098718 0.187345 0.500000 
511 1 0.109172 0.170943 0.500000 
512 1 0.118781 0.188075 0.500000 
513 1 0.129231 0.171670 0.500000 
514 1 0.138841 0.188818 0.500000 
515 1 0.149286 0.172407 0.500000 
516 1 0.158899 0.189570 0.500000 
517 1 0.169340 0.173157 0.500000 
518 1 0.178955 0.190339 0.500000 
519 1 0.189389 0.173920 0.500000 
520 1 0.199007 0.191120 0.500000 
521 1 0.209434 0.174693 0.500000 
522 1 0.219054 0.191911 0.500000 
523 1 0.229475 0.175478 0.500000 
524 1 0.239097 0.192717 0.500000 
525 1 0.249509 0.176275 0.500000 
526 1 0.259132 0.193534 0.500000 
527 1 0.269534 0.177081 0.500000 
528 1 0.279160 0.194362 0.500000 
529 1 0.289552 0.177896 0.500000 
530 1 0.299177 0.195199 0.500000 
531 1 0.309560 0.178717 0.500000 
532 1 0.319184 0.196041 0.500000 
533 1 0.329558 0.179543 0.500000 
534 1 0.339180 0.196888 0.500000 
535 1 0.349545 0.180369 0.500000 
536 1 0.359164 0.197736 0.500000 
537 1 0.369519 0.181195 0.500000 
538 1 0.379137 0.198579 0.500000 
539 1 0.389484 0.182015 0.500000 
540 1 0.399098 0.199416 0.500000 
541 1 0.409438 0.182826 0.500000 
542 1 0.419048 0.200240 0.500000 
543 1 0.429382 0.183622 0.500000 
544 1 0.438989 0.201044 0.500000 
545 1 0.449319 0.184399 0.500000 
546 1 0.458922 0.201825 0.500000 
547 1 0.469248 0.185150 0.500000 
548 1 0.478849 0.202576 0.500000 
549 1 0.489172 0.185874 0.500000 
550 1 0.498771 0.203298 0.500000 
551 1 0.509091 0.186569 0.500000 
552 1 0.518691 0.203981 0.500000 
553 1 0.529010 0.187228 0.500000 
554 1 0.538612 0.204627 0.500000 
555 1 0.548927 0.187850 0.500000 
556 1 0.558534 0.205233 0.500000 
557 1 0.568847 0.188436 0.500000 
558 1 0.578458 0.205800 0.500000 
559 1 0.588769 0.188984 0.500000 
560 1 0.598385 0.206331 0.500000 
561 1 0.608695 0.189499 0.500000 
562 1 0.618318 0.206825 0.500000 
563 1 0.628624 0.189979 0.500000 
564 1 0.638255 0.207285 0.500000 
565 1 0.648556 0.190426 0.500000 
566 1 0.658197 0.207712 0.500000 
567 1 0.668494 0.190841 0.500000 
568 1 0.678145 0.208107 0.500000 
569 1 0.688436 0.191228 0.500000 
570 1 0.698097 0.208475 0.500000 
571 1 0.708384 0.191588 0.500000 
572 1 0.718054 0.208816 0.500000 
573 1 0.728336 0.191923 0.500000 
574 1 0.738014 0.209135 0.500000 
575 1 0.748290 0.192234 0.500000 
576 1 0.757979 0.209431 0.500000 
577 1 0.768250 0.192524 0.500000 
578 1 0.777949 0.209704 0.500000 
579 1 0.788214 0.192793 0.500000 
580 1 0.797920 0.209959 0.500000 
581 1 0.808181 0.193043 0.500000 
582 1 0.817896 0.210195 0.500000 
583 1 0.828151 0.193276 0.500000 
584 1 0.837875 0.210415 0.500000 
585 1 0.848123 0.193492 0.500000 
586 1 0.857856 0.210619 0.500000 
587 1 0.868099 0.193693 0.500000 
588 1 0.877840 0.210808 0.500000 
589 1 0.888078 0.193880 0.500000 
590 1 0.897828 0.210985 0.500000 
591 1 0.908058 0.194056 0.500000 
592 1 0.917817 0.211152 0.500000 
593 1 0.928040 0.194224 0.500000 
594 1 0.937809 0.211311 0.500000 
595 1 0.948021 0.194385 0.500000 
596 1 0.957807 0.211443 0.500000 
597 1 0.968031 0.194496 0.500000 
598 1 0.977825 0.211543 0.500000 
599 1 0.988043 0.194599 0.500000 
600 1 0.997847 0.211634 0.500000 
601 1 0.008083 0.201103 0.500000 
602 1 0.017654 0.218157 0.500000 
603 1 0.028113 0.201727 0.500000 
604 1 0.037684 0.218790 0.500000 
605 1 0.048147 0.202367 0.500000 
606 1 0.057718 0.219436 0.500000 
607 1 0.068185 0.203017 0.500000 
608 1 0.077774 0.220127 0.500000 
609 1 0.088250 0.203739 0.500000 
610 1 0.097836 0.220858 0.500000 
611 1 0.108314 0.204470 0.500000 
612 1 0.117899 0.221602 0.500000 
613 1 0.128377 0.205216 0.500000 
614 1 0.137966 0.222362 0.500000 
615 1 0.148440 0.205972 0.500000 
616 1 0.158031 0.223134 0.500000 
617 1 0.168499 0.206742 0.500000 
618 1 0.178093 0.223921 0.500000 
619 1 0.188559 0.207528 0.500000 
620 1 0.198156 0.224725 0.500000 
621 1 0.208615 0.208327 0.500000 
622 1 0.218214 0.225545 0.500000 
623 1 0.228665 0.209140 0.500000 
624 1 0.238267 0.226382 0.500000 
625 1 0.248710 0.209968 0.500000 
626 1 0.258315 0.227231 0.500000 
627 1 0.268747 0.210807 0.500000 
628 1 0.278353 0.228096 0.500000 
629 1 0.288776 0.211659 0.500000 
630 1 0.298383 0.228971 0.500000 
631 1 0.308794 0.212519 0.500000 
632 1 0.318403 0.229857 0.500000 
633 1 0.328801 0.213385 0.500000 
634 1 0.338409 0.230749 0.500000 
635 1 0.348796 0.214255 0.500000 
636 1 0.358401 0.231642 0.500000 
637 1 0.368778 0.215123 0.500000 
638 1 0.378381 0.232532 0.500000 
639 1 0.388748 0.215986 0.500000 
640 1 0.398347 0.233418 0.500000 
641 1 0.408704 0.216839 0.500000 
642 1 0.418300 0.234283 0.500000 
643 1 0.428650 0.217673 0.500000 
644 1 0.438242 0.235128 0.500000 
645 1 0.448587 0.218484 0.500000 
646 1 0.458175 0.235942 0.500000 
647 1 0.468517 0.219266 0.500000 
648 1 0.478103 0.236724 0.500000 
649 1 0.488441 0.220017 0.500000 
650 1 0.498027 0.237465 0.500000 
651 1 0.508364 0.220728 0.500000 
652 1 0.517950 0.238165 0.500000 
653 1 0.528285 0.221399 0.500000 
654 1 0.537876 0.238817 0.500000 
655 1 0.548208 0.222027 0.500000 
656 1 0.557805 0.239425 0.500000 
657 1 0.568136 0.222614 0.500000 
658 1 0.577739 0.239990 0.500000 
659 1 0.588068 0.223161 0.500000 
660 1 0.597678 0.240516 0.500000 
661 1 0.608004 0.223672 0.500000 
662 1 0.617625 0.241004 0.500000 
663 1 0.627945 0.224144 0.500000 
664 1 0.637576 0.241455 0.500000 
665 1 0.647890 0.224584 0.500000 
666 1 0.657533 0.241872 0.500000 
667 1 0.667842 0.224988 0.500000 
668 1 0.677496 0.242255 0.500000 
669 1 0.687801 0.225364 0.500000 
670 1 0.697464 0.242610 0.500000 
671 1 0.707764 0.225712 0.500000 
672 1 0.717438 0.242941 0.500000 
673 1 0.727730 0.226037 0.500000 
674 1 0.737416 0.243247 0.500000 
675 1 0.747702 0.226339 0.500000 
676 1 0.757398 0.243533 0.500000 
677 1 0.767677 0.226618 0.500000 
678 1 0.777383 0.243795 0.500000 
679 1 0.787655 0.226877 0.500000 
680 1 0.797372 0.244039 0.500000 
681 1 0.807636 0.227116 0.500000 
682 1 0.817365 0.244264 0.500000 
683 1 0.827622 0.227338 0.500000 
684 1 0.837359 0.244473 0.500000 
685 1 0.847609 0.227546 0.500000 
686 1 0.857357 0.244666 0.500000 
687 1 0.867599 0.227736 0.500000 
688 1 0.877356 0.244844 0.500000 
689 1 0.887592 0.227913 0.500000 
690 1 0.897357 0.245011 0.500000 
691 1 0.907587 0.228081 0.500000 
692 1 0.917362 0.245168 0.500000 
693 1 0.927584 0.228239 0.500000 
694 1 0.937369 0.245317 0.500000 
695 1 0.947580 0.228392 0.500000 
696 1 0.957383 0.245436 0.500000 
697 1 0.967605 0.228489 0.500000 
698 1 0.977417 0.245522 0.500000 
699 1 0.987634 0.228577 0.500000 
700 1 0.997455 0.245600 0.500000 
701 1 0.007189 0.234587 0.500000 
702 1 0.016737 0.251640 0.500000 
703 1 0.027214 0.235215 0.500000 
704 1 0.036760 0.252274 0.500000 
705 1 0.047243 0.235854 0.500000 
706 1 0.056787 0.252921 0.500000 
707 1 0.067275 0.236508 0.500000 
708 1 0.076840 0.253616 0.500000 
709 1 0.087342 0.237240 0.500000 
710 1 0.096901 0.254358 0.500000 
711 1 0.107406 0.237983 0.500000 
712 1 0.116964 0.255112 0.500000 
713 1 0.127472 0.238740 0.500000 
714 1 0.137030 0.255881 0.500000 
715 1 0.147540 0.239513 0.500000 
716 1 0.157100 0.256669 0.500000 
717 1 0.167608 0.240302 0.500000 
718 1 0.177173 0.257477 0.500000 
719 1 0.187676 0.241108 0.500000 
720 1 0.197246 0.258302 0.500000 
721 1 0.207742 0.241933 0.500000 
722 1 0.217316 0.259149 0.500000 
723 1 0.227804 0.242776 0.500000 
724 1 0.237381 0.260015 0.500000 
725 1 0.247860 0.243634 0.500000 
726 1 0.257442 0.260900 0.500000 
727 1 0.267910 0.244510 0.500000 
728 1 0.277496 0.261803 0.500000 
729 1 0.287952 0.245400 0.500000 
730 1 0.297541 0.262721 0.500000 
731 1 0.307983 0.246301 0.500000 
732 1 0.317572 0.263656 0.500000 
733 1 0.328002 0.247217 0.500000 
734 1 0.337591 0.264600 0.500000 
735 1 0.348007 0.248136 0.500000 
736 1 0.357596 0.265546 0.500000 
737 1 0.367999 0.249053 0.500000 
738 1 0.377583 0.266493 0.500000 
739 1 0.387975 0.249969 0.500000 
740 1 0.397555 0.267430 0.500000 
741 1 0.407938 0.250871 0.500000 
742 1 0.417513 0.268353 0.500000 
743 1 0.427886 0.251752 0.500000 
744 1 0.437457 0.269244 0.500000 
745 1 0.447825 0.252603 0.500000 
746 1 0.457391 0.270100 0.500000 
747 1 0.467755 0.253419 0.500000 
748 1 0.477319 0.270913 0.500000 
749 1 0.487681 0.254195 0.500000 
750 1 0.497245 0.271676 0.500000 
751 1 0.507606 0.254923 0.500000 
752 1 0.517174 0.272384 0.500000 
753 1 0.527533 0.255603 0.500000 
754 1 0.537108 0.273042 0.500000 
755 1 0.547464 0.256235 0.500000 
756 1 0.557048 0.273649 0.500000 
757 1 0.567401 0.256820 0.500000 
758 1 0.576996 0.274209 0.500000 
759 1 0.587344 0.257363 0.500000 
760 1 0.596951 0.274725 0.500000 
761 1 0.607294 0.257864 0.500000 
762 1 0.616913 0.275200 0.500000 
763 1 0.627251 0.258327 0.500000 
764 1 0.636884 0.275638 0.500000 
765 1 0.647215 0.258755 0.500000 
766 1 0.656861 0.276043 0.500000 
767 1 0.667184 0.259149 0.500000 
768 1 0.676843 0.276413 0.500000 
769 1 0.687158 0.259510 0.500000 
770 1 0.696831 0.276755 0.500000 
771 1 0.707139 0.259847 0.500000 
772 1 0.716824 0.277073 0.500000 
773 1 0.727124 0.260160 0.500000 
774 1 0.736823 0.277365 0.500000 
775 1 0.747113 0.260447 0.500000 
776 1 0.756822 0.277638 0.500000 
777 1 0.767105 0.260717 0.500000 
778 1 0.776827 0.277888 0.500000 
779 1 0.787101 0.260962 0.500000 
780 1 0.796834 0.278119 0.500000 
781 1 0.807100 0.261190 0.500000 
782 1 0.816845 0.278333 0.500000 
783 1 0.827102 0.261402 0.500000 
784 1 0.836857 0.278528 0.500000 
785 1 0.847108 0.261595 0.500000 
786 1 0.856871 0.278708 0.500000 
787 1 0.867116 0.261775 0.500000 
788 1 0.876888 0.278875 0.500000 
789 1 0.887124 0.261943 0.500000 
790 1 0.896907 0.279030 0.500000 
791 1 0.907135 0.262097 0.500000 
792 1 0.916928 0.279175 0.500000 
793 1 0.927147 0.262245 0.500000 
794 1 0.936952 0.279312 0.500000 
795 1 0.947159 0.262387 0.500000 
796 1 0.956982 0.279417 0.500000 
797 1 0.967200 0.262468 0.500000 
798 1 0.977036 0.279488 0.500000 
799 1 0.987245 0.262544 0.500000 
800 1 0.997089 0.279555 0.500000 
801 1 0.006256 0.268068 0.500000 
802 1 0.015779 0.285121 0.500000 
803 1 0.026272 0.268696 0.500000 
804 1 0.035792 0.285753 0.500000 
805 1 0.046292 0.269335 0.500000 
806 1 0.055810 0.286400 0.500000 
807 1 0.066319 0.269991 0.500000 
808 1 0.075855 0.287096 0.500000 
809 1 0.086381 0.270727 0.500000 
810 1 0.095908 0.287841 0.500000 
811 1 0.106442 0.271479 0.500000 
812 1 0.115969 0.288600 0.500000 
813 1 0.126508 0.272244 0.500000 
814 1 0.136037 0.289378 0.500000 
815 1 0.146577 0.273027 0.500000 
816 1 0.156108 0.290178 0.500000 
817 1 0.166649 0.273831 0.500000 
818 1 0.176184 0.290998 0.500000 
819 1 0.186726 0.274657 0.500000 
820 1 0.196262 0.291843 0.500000 
821 1 0.206801 0.275504 0.500000 
822 1 0.216341 0.292714 0.500000 
823 1 0.226874 0.276374 0.500000 
824 1 0.236420 0.293607 0.500000 
825 1 0.246946 0.277265 0.500000 
826 1 0.256497 0.294529 0.500000 
827 1 0.267012 0.278180 0.500000 
828 1 0.276569 0.295475 0.500000 
829 1 0.287069 0.279111 0.500000 
830 1 0.296630 0.296442 0.500000 
831 1 0.307115 0.280065 0.500000 
832 1 0.316679 0.297431 0.500000 
833 1 0.327149 0.281032 0.500000 
834 1 0.336716 0.298433 0.500000 
835 1 0.347168 0.282007 0.500000 
836 1 0.356733 0.299445 0.500000 
837 1 0.367170 0.282987 0.500000 
838 1 0.376732 0.300458 0.500000 
839 1 0.387154 0.283961 0.500000 
840 1 0.396711 0.301464 0.500000 
841 1 0.407122 0.284923 0.500000 
842 1 0.416673 0.302449 0.500000 
843 1 0.427076 0.285862 0.500000 
844 1 0.436621 0.303403 0.500000 
845 1 0.447016 0.286762 0.500000 
846 1 0.456555 0.304307 0.500000 
847 1 0.466946 0.287618 0.500000 
848 1 0.476486 0.305152 0.500000 
849 1 0.486874 0.288420 0.500000 
850 1 0.496419 0.305934 0.500000 
851 1 0.506805 0.289162 0.500000 
852 1 0.516356 0.306649 0.500000 
853 1 0.526740 0.289846 0.500000 
854 1 0.536301 0.307304 0.500000 
855 1 0.546683 0.290477 0.500000 
856 1 0.556258 0.307903 0.500000 
857 1 0.566635 0.291055 0.500000 
858 1 0.576223 0.308450 0.500000 
859 1 0.586594 0.291587 0.500000 
860 1 0.596199 0.308951 0.500000 
861 1 0.606564 0.292075 0.500000 
862 1 0.616185 0.309410 0.500000 
863 1 0.626542 0.292523 0.500000 
864 1 0.636180 0.309833 0.500000 
865 1 0.646525 0.292937 0.500000 
866 1 0.656181 0.310219 0.500000 
867 1 0.666517 0.293316 0.500000 
868 1 0.676188 0.310576 0.500000 
869 1 0.686514 0.293665 0.500000 
870 1 0.696200 0.310904 0.500000 
871 1 0.706515 0.293987 0.500000 
872 1 0.716218 0.311205 0.500000 
873 1 0.726522 0.294284 0.500000 
874 1 0.736237 0.311485 0.500000 
875 1 0.746532 0.294561 0.500000 
876 1 0.756260 0.311741 0.500000 
877 1 0.766546 0.294814 0.500000 
878 1 0.776287 0.311979 0.500000 
879 1 0.786563 0.295049 0.500000 
880 1 0.796316 0.312198 0.500000 
881 1 0.806582 0.295265 0.500000 