ITEM: TIMESTEP
3400
ITEM: NUMBER OF ATOMS
2850
ITEM: BOX BOUNDS ss ss pp
-28.0536 28.3253 
-28.9988 28.9984 
-0.5 0.5 
ITEM: ATOMS id type xs ys zs
1 1 0.012661 0.000000 0.500000 
2 1 0.022340 0.017073 0.500000 
3 1 0.032688 0.000597 0.500000 
4 1 0.042369 0.017677 0.500000 
5 1 0.052715 0.001202 0.500000 
6 1 0.062397 0.018289 0.500000 
7 1 0.072742 0.001814 0.500000 
8 1 0.082426 0.018911 0.500000 
9 1 0.092767 0.002433 0.500000 
10 1 0.102455 0.019539 0.500000 
11 1 0.112794 0.003060 0.500000 
12 1 0.122484 0.020177 0.500000 
13 1 0.132817 0.003697 0.500000 
14 1 0.142511 0.020822 0.500000 
15 1 0.152841 0.004338 0.500000 
16 1 0.162536 0.021475 0.500000 
17 1 0.172861 0.004988 0.500000 
18 1 0.182559 0.022136 0.500000 
19 1 0.192879 0.005643 0.500000 
20 1 0.202579 0.022803 0.500000 
21 1 0.212895 0.006305 0.500000 
22 1 0.222596 0.023475 0.500000 
23 1 0.232906 0.006973 0.500000 
24 1 0.242610 0.024155 0.500000 
25 1 0.252912 0.007645 0.500000 
26 1 0.262618 0.024839 0.500000 
27 1 0.272914 0.008319 0.500000 
28 1 0.282622 0.025527 0.500000 
29 1 0.292911 0.008997 0.500000 
30 1 0.302619 0.026217 0.500000 
31 1 0.312901 0.009676 0.500000 
32 1 0.322610 0.026908 0.500000 
33 1 0.332885 0.010356 0.500000 
34 1 0.342593 0.027600 0.500000 
35 1 0.352861 0.011033 0.500000 
36 1 0.362570 0.028289 0.500000 
37 1 0.372830 0.011707 0.500000 
38 1 0.382537 0.028974 0.500000 
39 1 0.392791 0.012376 0.500000 
40 1 0.402497 0.029655 0.500000 
41 1 0.412744 0.013039 0.500000 
42 1 0.422448 0.030326 0.500000 
43 1 0.432688 0.013694 0.500000 
44 1 0.442390 0.030989 0.500000 
45 1 0.452624 0.014337 0.500000 
46 1 0.462324 0.031639 0.500000 
47 1 0.472553 0.014968 0.500000 
48 1 0.482250 0.032276 0.500000 
49 1 0.492474 0.015584 0.500000 
50 1 0.502167 0.032896 0.500000 
51 1 0.512388 0.016184 0.500000 
52 1 0.522078 0.033498 0.500000 
53 1 0.532295 0.016766 0.500000 
54 1 0.541983 0.034081 0.500000 
55 1 0.552198 0.017330 0.500000 
56 1 0.561882 0.034643 0.500000 
57 1 0.572095 0.017873 0.500000 
58 1 0.581777 0.035184 0.500000 
59 1 0.591989 0.018396 0.500000 
60 1 0.601668 0.035702 0.500000 
61 1 0.611880 0.018896 0.500000 
62 1 0.621558 0.036195 0.500000 
63 1 0.631769 0.019373 0.500000 
64 1 0.641446 0.036666 0.500000 
65 1 0.651657 0.019829 0.500000 
66 1 0.661334 0.037110 0.500000 
67 1 0.671546 0.020261 0.500000 
68 1 0.681223 0.037533 0.500000 
69 1 0.691436 0.020670 0.500000 
70 1 0.701115 0.037931 0.500000 
71 1 0.711328 0.021058 0.500000 
72 1 0.721007 0.038307 0.500000 
73 1 0.731222 0.021423 0.500000 
74 1 0.740905 0.038660 0.500000 
75 1 0.751120 0.021768 0.500000 
76 1 0.760806 0.038993 0.500000 
77 1 0.771021 0.022094 0.500000 
78 1 0.780711 0.039305 0.500000 
79 1 0.790927 0.022399 0.500000 
80 1 0.800620 0.039597 0.500000 
81 1 0.810837 0.022687 0.500000 
82 1 0.820536 0.039873 0.500000 
83 1 0.830751 0.022958 0.500000 
84 1 0.840456 0.040130 0.500000 
85 1 0.850671 0.023211 0.500000 
86 1 0.860382 0.040369 0.500000 
87 1 0.870595 0.023449 0.500000 
88 1 0.880312 0.040595 0.500000 
89 1 0.890525 0.023674 0.500000 
90 1 0.900248 0.040807 0.500000 
91 1 0.910459 0.023884 0.500000 
92 1 0.920188 0.041005 0.500000 
93 1 0.930398 0.024080 0.500000 
94 1 0.940134 0.041192 0.500000 
95 1 0.950341 0.024267 0.500000 
96 1 0.960084 0.041368 0.500000 
97 1 0.970290 0.024443 0.500000 
98 1 0.980040 0.041531 0.500000 
99 1 0.990243 0.024606 0.500000 
100 1 1.000000 0.041686 0.500000 
101 1 0.011983 0.033545 0.500000 
102 1 0.021650 0.050615 0.500000 
103 1 0.032014 0.034148 0.500000 
104 1 0.041680 0.051227 0.500000 
105 1 0.052044 0.034760 0.500000 
106 1 0.061715 0.051847 0.500000 
107 1 0.072075 0.035381 0.500000 
108 1 0.081756 0.052476 0.500000 
109 1 0.092107 0.036012 0.500000 
110 1 0.101804 0.053124 0.500000 
111 1 0.112138 0.036650 0.500000 
112 1 0.121836 0.053785 0.500000 
113 1 0.132168 0.037297 0.500000 
114 1 0.141868 0.054442 0.500000 
115 1 0.152197 0.037952 0.500000 
116 1 0.161896 0.055117 0.500000 
117 1 0.172226 0.038617 0.500000 
118 1 0.181920 0.055797 0.500000 
119 1 0.192251 0.039288 0.500000 
120 1 0.201946 0.056475 0.500000 
121 1 0.212274 0.039967 0.500000 
122 1 0.221966 0.057174 0.500000 
123 1 0.232293 0.040654 0.500000 
124 1 0.241980 0.057875 0.500000 
125 1 0.252309 0.041345 0.500000 
126 1 0.261990 0.058576 0.500000 
127 1 0.272318 0.042042 0.500000 
128 1 0.281991 0.059292 0.500000 
129 1 0.292324 0.042743 0.500000 
130 1 0.301990 0.060008 0.500000 
131 1 0.312323 0.043447 0.500000 
132 1 0.321988 0.060722 0.500000 
133 1 0.332314 0.044150 0.500000 
134 1 0.341972 0.061437 0.500000 
135 1 0.352297 0.044856 0.500000 
136 1 0.361954 0.062145 0.500000 
137 1 0.372273 0.045557 0.500000 
138 1 0.381927 0.062872 0.500000 
139 1 0.392240 0.046254 0.500000 
140 1 0.401884 0.063573 0.500000 
141 1 0.412198 0.046944 0.500000 
142 1 0.421831 0.064265 0.500000 
143 1 0.432147 0.047626 0.500000 
144 1 0.441774 0.064956 0.500000 
145 1 0.452087 0.048297 0.500000 
146 1 0.461708 0.065636 0.500000 
147 1 0.472018 0.048954 0.500000 
148 1 0.481635 0.066292 0.500000 
149 1 0.491940 0.049595 0.500000 
150 1 0.501552 0.066941 0.500000 
151 1 0.511855 0.050220 0.500000 
152 1 0.521460 0.067555 0.500000 
153 1 0.531762 0.050823 0.500000 
154 1 0.541368 0.068154 0.500000 
155 1 0.551663 0.051406 0.500000 
156 1 0.561272 0.068736 0.500000 
157 1 0.571560 0.051966 0.500000 
158 1 0.581167 0.069286 0.500000 
159 1 0.591452 0.052503 0.500000 
160 1 0.601061 0.069814 0.500000 
161 1 0.611341 0.053013 0.500000 
162 1 0.620956 0.070312 0.500000 
163 1 0.631230 0.053499 0.500000 
164 1 0.640852 0.070787 0.500000 
165 1 0.651117 0.053960 0.500000 
166 1 0.660748 0.071229 0.500000 
167 1 0.671006 0.054396 0.500000 
168 1 0.680644 0.071650 0.500000 
169 1 0.690897 0.054806 0.500000 
170 1 0.700545 0.072047 0.500000 
171 1 0.710789 0.055192 0.500000 
172 1 0.720452 0.072418 0.500000 
173 1 0.730685 0.055554 0.500000 
174 1 0.740361 0.072767 0.500000 
175 1 0.750586 0.055894 0.500000 
176 1 0.760266 0.073097 0.500000 
177 1 0.770490 0.056213 0.500000 
178 1 0.780178 0.073401 0.500000 
179 1 0.790400 0.056511 0.500000 
180 1 0.800099 0.073682 0.500000 
181 1 0.810316 0.056789 0.500000 
182 1 0.820028 0.073951 0.500000 
183 1 0.830238 0.057049 0.500000 
184 1 0.839959 0.074207 0.500000 
185 1 0.850164 0.057294 0.500000 
186 1 0.859889 0.074436 0.500000 
187 1 0.870095 0.057522 0.500000 
188 1 0.879827 0.074648 0.500000 
189 1 0.890032 0.057734 0.500000 
190 1 0.899765 0.074850 0.500000 
191 1 0.909975 0.057934 0.500000 
192 1 0.919715 0.075043 0.500000 
193 1 0.929922 0.058120 0.500000 
194 1 0.939668 0.075222 0.500000 
195 1 0.949875 0.058294 0.500000 
196 1 0.959621 0.075390 0.500000 
197 1 0.969833 0.058458 0.500000 
198 1 0.979588 0.075542 0.500000 
199 1 0.989796 0.058613 0.500000 
200 1 0.999557 0.075685 0.500000 
201 1 0.011275 0.067077 0.500000 
202 1 0.020924 0.084144 0.500000 
203 1 0.031308 0.067688 0.500000 
204 1 0.040959 0.084763 0.500000 
205 1 0.051342 0.068307 0.500000 
206 1 0.060994 0.085390 0.500000 
207 1 0.071376 0.068936 0.500000 
208 1 0.081047 0.086037 0.500000 
209 1 0.091429 0.069580 0.500000 
210 1 0.101090 0.086711 0.500000 
211 1 0.111473 0.070259 0.500000 
212 1 0.121143 0.087392 0.500000 
213 1 0.131514 0.070921 0.500000 
214 1 0.141183 0.088069 0.500000 
215 1 0.151549 0.071598 0.500000 
216 1 0.161217 0.088770 0.500000 
217 1 0.171578 0.072292 0.500000 
218 1 0.181256 0.089465 0.500000 
219 1 0.191608 0.072974 0.500000 
220 1 0.201284 0.090171 0.500000 
221 1 0.211633 0.073681 0.500000 
222 1 0.221307 0.090900 0.500000 
223 1 0.231652 0.074396 0.500000 
224 1 0.241331 0.091615 0.500000 
225 1 0.251671 0.075102 0.500000 
226 1 0.261343 0.092347 0.500000 
227 1 0.271675 0.075825 0.500000 
228 1 0.281349 0.093092 0.500000 
229 1 0.291672 0.076556 0.500000 
230 1 0.301351 0.093821 0.500000 
231 1 0.311669 0.077274 0.500000 
232 1 0.321341 0.094560 0.500000 
233 1 0.331659 0.078010 0.500000 
234 1 0.341330 0.095307 0.500000 
235 1 0.351640 0.078732 0.500000 
236 1 0.361304 0.096049 0.500000 
237 1 0.371610 0.079464 0.500000 
238 1 0.381265 0.096797 0.500000 
239 1 0.391579 0.080196 0.500000 
240 1 0.401227 0.097533 0.500000 
241 1 0.411533 0.080904 0.500000 
242 1 0.421170 0.098251 0.500000 
243 1 0.431476 0.081605 0.500000 
244 1 0.441102 0.098965 0.500000 
245 1 0.451409 0.082304 0.500000 
246 1 0.461031 0.099663 0.500000 
247 1 0.471338 0.082984 0.500000 
248 1 0.480950 0.100349 0.500000 
249 1 0.491259 0.083648 0.500000 
250 1 0.500867 0.101006 0.500000 
251 1 0.511179 0.084290 0.500000 
252 1 0.520785 0.101638 0.500000 
253 1 0.531089 0.084897 0.500000 
254 1 0.540694 0.102245 0.500000 
255 1 0.550994 0.085494 0.500000 
256 1 0.560600 0.102837 0.500000 
257 1 0.570891 0.086066 0.500000 
258 1 0.580501 0.103396 0.500000 
259 1 0.590784 0.086608 0.500000 
260 1 0.600402 0.103931 0.500000 
261 1 0.610680 0.087127 0.500000 
262 1 0.620304 0.104432 0.500000 
263 1 0.630580 0.087609 0.500000 
264 1 0.640210 0.104892 0.500000 
265 1 0.650489 0.088064 0.500000 
266 1 0.660122 0.105333 0.500000 
267 1 0.670388 0.088495 0.500000 
268 1 0.680035 0.105751 0.500000 
269 1 0.690291 0.088898 0.500000 
270 1 0.699951 0.106142 0.500000 
271 1 0.710201 0.089282 0.500000 
272 1 0.719873 0.106508 0.500000 
273 1 0.730115 0.089638 0.500000 
274 1 0.739797 0.106849 0.500000 
275 1 0.750030 0.089969 0.500000 
276 1 0.759721 0.107167 0.500000 
277 1 0.769953 0.090284 0.500000 
278 1 0.779649 0.107469 0.500000 
279 1 0.789878 0.090577 0.500000 
280 1 0.799580 0.107748 0.500000 
281 1 0.809804 0.090847 0.500000 
282 1 0.819514 0.108010 0.500000 
283 1 0.829735 0.091107 0.500000 
284 1 0.839452 0.108256 0.500000 
285 1 0.849675 0.091351 0.500000 
286 1 0.859399 0.108482 0.500000 
287 1 0.869620 0.091563 0.500000 
288 1 0.879342 0.108697 0.500000 
289 1 0.889562 0.091775 0.500000 
290 1 0.899294 0.108890 0.500000 
291 1 0.909509 0.091963 0.500000 
292 1 0.919247 0.109075 0.500000 
293 1 0.929459 0.092147 0.500000 
294 1 0.939199 0.109249 0.500000 
295 1 0.949407 0.092323 0.500000 
296 1 0.959160 0.109410 0.500000 
297 1 0.969375 0.092475 0.500000 
298 1 0.979136 0.109550 0.500000 
299 1 0.989349 0.092617 0.500000 
300 1 0.999117 0.109681 0.500000 
301 1 0.010532 0.100598 0.500000 
302 1 0.020165 0.117663 0.500000 
303 1 0.030566 0.101214 0.500000 
304 1 0.040201 0.118287 0.500000 
305 1 0.050602 0.101839 0.500000 
306 1 0.060239 0.118920 0.500000 
307 1 0.070640 0.102476 0.500000 
308 1 0.080291 0.119583 0.500000 
309 1 0.090699 0.103157 0.500000 
310 1 0.100349 0.120279 0.500000 
311 1 0.110752 0.103840 0.500000 
312 1 0.120402 0.120975 0.500000 
313 1 0.130803 0.104533 0.500000 
314 1 0.140447 0.121688 0.500000 
315 1 0.150841 0.105237 0.500000 
316 1 0.160495 0.122398 0.500000 
317 1 0.170883 0.105942 0.500000 
318 1 0.180538 0.123123 0.500000 
319 1 0.190917 0.106653 0.500000 
320 1 0.200573 0.123854 0.500000 
321 1 0.210944 0.107383 0.500000 
322 1 0.220610 0.124590 0.500000 
323 1 0.230976 0.108113 0.500000 
324 1 0.240631 0.125350 0.500000 
325 1 0.250992 0.108857 0.500000 
326 1 0.260654 0.126106 0.500000 
327 1 0.271007 0.109608 0.500000 
328 1 0.280673 0.126871 0.500000 
329 1 0.291022 0.110361 0.500000 
330 1 0.300681 0.127650 0.500000 
331 1 0.311018 0.111106 0.500000 
332 1 0.320673 0.128409 0.500000 
333 1 0.331010 0.111862 0.500000 
334 1 0.340659 0.129181 0.500000 
335 1 0.350989 0.112625 0.500000 
336 1 0.360634 0.129965 0.500000 
337 1 0.370950 0.113389 0.500000 
338 1 0.380600 0.130736 0.500000 
339 1 0.390912 0.114137 0.500000 
340 1 0.400550 0.131502 0.500000 
341 1 0.410864 0.114886 0.500000 
342 1 0.420493 0.132258 0.500000 
343 1 0.430799 0.115619 0.500000 
344 1 0.440430 0.132991 0.500000 
345 1 0.450732 0.116333 0.500000 
346 1 0.460353 0.133721 0.500000 
347 1 0.470653 0.117041 0.500000 
348 1 0.480278 0.134418 0.500000 
349 1 0.490574 0.117718 0.500000 
350 1 0.500196 0.135092 0.500000 
351 1 0.510494 0.118370 0.500000 
352 1 0.520112 0.135746 0.500000 
353 1 0.530407 0.119000 0.500000 
354 1 0.540023 0.136368 0.500000 
355 1 0.550314 0.119605 0.500000 
356 1 0.559932 0.136963 0.500000 
357 1 0.570217 0.120182 0.500000 
358 1 0.579837 0.137524 0.500000 
359 1 0.590120 0.120726 0.500000 
360 1 0.599746 0.138050 0.500000 
361 1 0.610030 0.121244 0.500000 
362 1 0.619662 0.138549 0.500000 
363 1 0.629940 0.121724 0.500000 
364 1 0.639578 0.139011 0.500000 
365 1 0.649850 0.122166 0.500000 
366 1 0.659494 0.139445 0.500000 
367 1 0.669764 0.122599 0.500000 
368 1 0.679418 0.139866 0.500000 
369 1 0.689684 0.123005 0.500000 
370 1 0.699350 0.140249 0.500000 
371 1 0.709613 0.123378 0.500000 
372 1 0.719281 0.140609 0.500000 
373 1 0.729538 0.123728 0.500000 
374 1 0.739206 0.140948 0.500000 
375 1 0.749464 0.124057 0.500000 
376 1 0.759139 0.141255 0.500000 
377 1 0.769400 0.124363 0.500000 
378 1 0.779080 0.141551 0.500000 
379 1 0.789339 0.124650 0.500000 
380 1 0.799028 0.141826 0.500000 
381 1 0.809280 0.124918 0.500000 
382 1 0.818974 0.142085 0.500000 
383 1 0.829218 0.125172 0.500000 
384 1 0.838925 0.142316 0.500000 
385 1 0.849161 0.125395 0.500000 
386 1 0.858875 0.142530 0.500000 
387 1 0.869110 0.125615 0.500000 
388 1 0.878832 0.142737 0.500000 
389 1 0.889065 0.125818 0.500000 
390 1 0.898794 0.142936 0.500000 
391 1 0.909021 0.126006 0.500000 
392 1 0.918760 0.143113 0.500000 
393 1 0.928980 0.126185 0.500000 
394 1 0.938731 0.143285 0.500000 
395 1 0.948940 0.126349 0.500000 
396 1 0.958701 0.143428 0.500000 
397 1 0.968919 0.126487 0.500000 
398 1 0.978689 0.143555 0.500000 
399 1 0.988905 0.126616 0.500000 
400 1 0.998682 0.143674 0.500000 
401 1 0.009754 0.134110 0.500000 
402 1 0.019367 0.151171 0.500000 
403 1 0.029790 0.134729 0.500000 
404 1 0.039403 0.151799 0.500000 
405 1 0.049825 0.135360 0.500000 
406 1 0.059442 0.152437 0.500000 
407 1 0.069865 0.136003 0.500000 
408 1 0.079500 0.153116 0.500000 
409 1 0.089927 0.136700 0.500000 
410 1 0.099561 0.153823 0.500000 
411 1 0.109987 0.137407 0.500000 
412 1 0.119622 0.154548 0.500000 
413 1 0.130038 0.138123 0.500000 
414 1 0.139684 0.155270 0.500000 
415 1 0.150096 0.138839 0.500000 
416 1 0.159734 0.156010 0.500000 
417 1 0.170145 0.139574 0.500000 
418 1 0.179786 0.156758 0.500000 
419 1 0.190193 0.140316 0.500000 
420 1 0.199839 0.157512 0.500000 
421 1 0.210234 0.141055 0.500000 
422 1 0.219871 0.158281 0.500000 
423 1 0.230261 0.141823 0.500000 
424 1 0.239912 0.159055 0.500000 
425 1 0.250290 0.142590 0.500000 
426 1 0.259947 0.159847 0.500000 
427 1 0.270311 0.143363 0.500000 
428 1 0.279957 0.160650 0.500000 
429 1 0.290322 0.144157 0.500000 
430 1 0.299967 0.161451 0.500000 
431 1 0.310331 0.144948 0.500000 
432 1 0.319976 0.162254 0.500000 
433 1 0.330323 0.145726 0.500000 
434 1 0.339964 0.163063 0.500000 
435 1 0.350301 0.146516 0.500000 
436 1 0.359937 0.163873 0.500000 
437 1 0.370272 0.147314 0.500000 
438 1 0.379905 0.164688 0.500000 
439 1 0.390232 0.148108 0.500000 
440 1 0.399870 0.165487 0.500000 
441 1 0.410184 0.148881 0.500000 
442 1 0.419814 0.166276 0.500000 
443 1 0.430122 0.149638 0.500000 
444 1 0.439742 0.167045 0.500000 
445 1 0.450048 0.150388 0.500000 
446 1 0.459671 0.167794 0.500000 
447 1 0.469976 0.151110 0.500000 
448 1 0.479592 0.168520 0.500000 
449 1 0.489896 0.151811 0.500000 
450 1 0.499515 0.169207 0.500000 
451 1 0.509811 0.152478 0.500000 
452 1 0.519428 0.169871 0.500000 
453 1 0.529724 0.153122 0.500000 
454 1 0.539341 0.170499 0.500000 
455 1 0.549638 0.153731 0.500000 
456 1 0.559251 0.171104 0.500000 
457 1 0.569548 0.154319 0.500000 
458 1 0.579166 0.171670 0.500000 
459 1 0.589461 0.154862 0.500000 
460 1 0.599085 0.172198 0.500000 
461 1 0.609378 0.155368 0.500000 
462 1 0.618997 0.172686 0.500000 
463 1 0.629297 0.155851 0.500000 
464 1 0.638916 0.173151 0.500000 
465 1 0.649216 0.156300 0.500000 
466 1 0.658844 0.173585 0.500000 
467 1 0.669138 0.156721 0.500000 
468 1 0.678771 0.173991 0.500000 
469 1 0.689070 0.157122 0.500000 
470 1 0.698707 0.174371 0.500000 
471 1 0.709003 0.157491 0.500000 
472 1 0.718649 0.174725 0.500000 
473 1 0.728935 0.157836 0.500000 
474 1 0.738595 0.175052 0.500000 
475 1 0.748875 0.158152 0.500000 
476 1 0.758546 0.175354 0.500000 
477 1 0.768818 0.158454 0.500000 
478 1 0.778499 0.175648 0.500000 
479 1 0.788763 0.158735 0.500000 
480 1 0.798455 0.175916 0.500000 
481 1 0.808713 0.158997 0.500000 
482 1 0.818414 0.176159 0.500000 
483 1 0.828670 0.159237 0.500000 
484 1 0.838376 0.176387 0.500000 
485 1 0.848630 0.159458 0.500000 
486 1 0.858341 0.176594 0.500000 
487 1 0.868588 0.159659 0.500000 
488 1 0.878315 0.176782 0.500000 
489 1 0.888552 0.159856 0.500000 
490 1 0.898295 0.176969 0.500000 
491 1 0.908528 0.160044 0.500000 
492 1 0.918280 0.177141 0.500000 
493 1 0.928504 0.160210 0.500000 
494 1 0.938260 0.177302 0.500000 
495 1 0.948477 0.160370 0.500000 
496 1 0.958249 0.177440 0.500000 
497 1 0.968470 0.160496 0.500000 
498 1 0.978251 0.177553 0.500000 
499 1 0.988467 0.160611 0.500000 
500 1 0.998258 0.177659 0.500000 
501 1 0.008938 0.167610 0.500000 
502 1 0.018532 0.184668 0.500000 
503 1 0.028972 0.168234 0.500000 
504 1 0.038566 0.185299 0.500000 
505 1 0.049008 0.168868 0.500000 
506 1 0.058602 0.185942 0.500000 
507 1 0.069047 0.169517 0.500000 
508 1 0.078671 0.186630 0.500000 
509 1 0.089121 0.170233 0.500000 
510 1 0.098740 0.187365 0.500000 
511 1 0.109184 0.170958 0.500000 
512 1 0.118807 0.188093 0.500000 
513 1 0.129253 0.171687 0.500000 
514 1 0.138875 0.188839 0.500000 
515 1 0.149315 0.172434 0.500000 
516 1 0.158932 0.189606 0.500000 
517 1 0.169366 0.173186 0.500000 
518 1 0.178988 0.190366 0.500000 
519 1 0.189422 0.173946 0.500000 
520 1 0.199044 0.191150 0.500000 
521 1 0.209469 0.174728 0.500000 
522 1 0.219095 0.191943 0.500000 
523 1 0.229511 0.175506 0.500000 
524 1 0.239140 0.192744 0.500000 
525 1 0.249548 0.176302 0.500000 
526 1 0.259172 0.193578 0.500000 
527 1 0.269572 0.177128 0.500000 
528 1 0.279207 0.194411 0.500000 
529 1 0.289594 0.177943 0.500000 
530 1 0.299232 0.195247 0.500000 
531 1 0.309607 0.178758 0.500000 
532 1 0.319243 0.196092 0.500000 
533 1 0.329605 0.179587 0.500000 
534 1 0.339240 0.196943 0.500000 
535 1 0.349593 0.180418 0.500000 
536 1 0.359217 0.197797 0.500000 
537 1 0.369571 0.181253 0.500000 
538 1 0.379190 0.198641 0.500000 
539 1 0.389540 0.182074 0.500000 
540 1 0.399151 0.199487 0.500000 
541 1 0.409486 0.182892 0.500000 
542 1 0.419099 0.200315 0.500000 
543 1 0.429419 0.183691 0.500000 
544 1 0.439037 0.201111 0.500000 
545 1 0.449351 0.184456 0.500000 
546 1 0.458963 0.201886 0.500000 
547 1 0.469283 0.185215 0.500000 
548 1 0.478887 0.202641 0.500000 
549 1 0.489205 0.185930 0.500000 
550 1 0.498807 0.203354 0.500000 
551 1 0.509117 0.186617 0.500000 
552 1 0.518720 0.204031 0.500000 
553 1 0.529028 0.187268 0.500000 
554 1 0.538634 0.204673 0.500000 
555 1 0.548939 0.187886 0.500000 
556 1 0.558541 0.205276 0.500000 
557 1 0.568852 0.188474 0.500000 
558 1 0.578460 0.205839 0.500000 
559 1 0.588774 0.189020 0.500000 
560 1 0.598382 0.206365 0.500000 
561 1 0.608697 0.189532 0.500000 
562 1 0.618313 0.206856 0.500000 
563 1 0.628615 0.189999 0.500000 
564 1 0.638244 0.207309 0.500000 
565 1 0.648544 0.190445 0.500000 
566 1 0.658177 0.207741 0.500000 
567 1 0.668476 0.190866 0.500000 
568 1 0.678118 0.208133 0.500000 
569 1 0.688418 0.191249 0.500000 
570 1 0.698068 0.208495 0.500000 
571 1 0.708370 0.191608 0.500000 
572 1 0.718023 0.208842 0.500000 
573 1 0.728322 0.191949 0.500000 
574 1 0.737980 0.209168 0.500000 
575 1 0.748274 0.192262 0.500000 
576 1 0.757940 0.209466 0.500000 
577 1 0.768227 0.192556 0.500000 
578 1 0.777908 0.209746 0.500000 
579 1 0.788188 0.192832 0.500000 
580 1 0.797883 0.210003 0.500000 
581 1 0.808155 0.193082 0.500000 
582 1 0.817861 0.210234 0.500000 
583 1 0.828126 0.193314 0.500000 
584 1 0.837845 0.210452 0.500000 
585 1 0.848094 0.193524 0.500000 
586 1 0.857830 0.210639 0.500000 
587 1 0.868073 0.193709 0.500000 
588 1 0.877818 0.210822 0.500000 
589 1 0.888060 0.193895 0.500000 
590 1 0.897814 0.210997 0.500000 
591 1 0.908052 0.194070 0.500000 
592 1 0.917810 0.211168 0.500000 
593 1 0.928038 0.194235 0.500000 
594 1 0.937805 0.211319 0.500000 
595 1 0.948021 0.194385 0.500000 
596 1 0.957807 0.211443 0.500000 
597 1 0.968031 0.194496 0.500000 
598 1 0.977825 0.211543 0.500000 
599 1 0.988043 0.194599 0.500000 
600 1 0.997847 0.211634 0.500000 
601 1 0.008083 0.201103 0.500000 
602 1 0.017654 0.218157 0.500000 
603 1 0.028113 0.201727 0.500000 
604 1 0.037684 0.218790 0.500000 
605 1 0.048147 0.202367 0.500000 
606 1 0.057718 0.219436 0.500000 
607 1 0.068185 0.203017 0.500000 
608 1 0.077775 0.220133 0.500000 
609 1 0.088257 0.203751 0.500000 
610 1 0.097851 0.220869 0.500000 
611 1 0.108338 0.204490 0.500000 
612 1 0.117927 0.221624 0.500000 
613 1 0.128407 0.205235 0.500000 
614 1 0.137993 0.222394 0.500000 
615 1 0.148470 0.206005 0.500000 
616 1 0.158059 0.223163 0.500000 
617 1 0.168538 0.206777 0.500000 
618 1 0.178129 0.223960 0.500000 
619 1 0.188596 0.207559 0.500000 
620 1 0.198195 0.224759 0.500000 
621 1 0.208655 0.208360 0.500000 
622 1 0.218261 0.225582 0.500000 
623 1 0.228709 0.209170 0.500000 
624 1 0.238315 0.226425 0.500000 
625 1 0.248752 0.210010 0.500000 
626 1 0.258371 0.227277 0.500000 
627 1 0.268798 0.210851 0.500000 
628 1 0.278413 0.228142 0.500000 
629 1 0.288836 0.211710 0.500000 
630 1 0.298450 0.229028 0.500000 
631 1 0.308855 0.212572 0.500000 
632 1 0.318471 0.229915 0.500000 
633 1 0.328863 0.213439 0.500000 
634 1 0.338471 0.230814 0.500000 
635 1 0.348857 0.214320 0.500000 
636 1 0.358463 0.231714 0.500000 
637 1 0.368841 0.215193 0.500000 
638 1 0.378443 0.232612 0.500000 
639 1 0.388807 0.216062 0.500000 
640 1 0.398408 0.233501 0.500000 
641 1 0.408762 0.216917 0.500000 
642 1 0.418358 0.234364 0.500000 
643 1 0.428705 0.217748 0.500000 
644 1 0.438296 0.235207 0.500000 
645 1 0.448632 0.218556 0.500000 
646 1 0.458222 0.236026 0.500000 
647 1 0.468554 0.219337 0.500000 
648 1 0.478146 0.236803 0.500000 
649 1 0.488478 0.220077 0.500000 
650 1 0.498062 0.237543 0.500000 
651 1 0.508393 0.220790 0.500000 
652 1 0.517977 0.238234 0.500000 
653 1 0.528307 0.221454 0.500000 
654 1 0.537898 0.238877 0.500000 
655 1 0.548226 0.222081 0.500000 
656 1 0.557826 0.239480 0.500000 
657 1 0.568148 0.222657 0.500000 
658 1 0.577754 0.240045 0.500000 
659 1 0.588073 0.223205 0.500000 
660 1 0.597690 0.240563 0.500000 
661 1 0.608005 0.223707 0.500000 
662 1 0.617628 0.241047 0.500000 
663 1 0.627943 0.224181 0.500000 
664 1 0.637577 0.241498 0.500000 
665 1 0.647883 0.224619 0.500000 
666 1 0.657532 0.241920 0.500000 
667 1 0.667825 0.225022 0.500000 
668 1 0.677488 0.242296 0.500000 
669 1 0.687775 0.225393 0.500000 
670 1 0.697445 0.242657 0.500000 
671 1 0.707729 0.225744 0.500000 
672 1 0.717408 0.242985 0.500000 
673 1 0.727691 0.226073 0.500000 
674 1 0.737378 0.243294 0.500000 
675 1 0.747656 0.226380 0.500000 
676 1 0.757352 0.243579 0.500000 
677 1 0.767627 0.226660 0.500000 
678 1 0.777333 0.243844 0.500000 
679 1 0.787609 0.226923 0.500000 
680 1 0.797324 0.244088 0.500000 
681 1 0.807596 0.227160 0.500000 
682 1 0.817316 0.244308 0.500000 
683 1 0.827582 0.227376 0.500000 
684 1 0.837313 0.244503 0.500000 
685 1 0.847576 0.227572 0.500000 
686 1 0.857318 0.244690 0.500000 
687 1 0.867571 0.227753 0.500000 
688 1 0.877321 0.244862 0.500000 
689 1 0.887570 0.227932 0.500000 
690 1 0.897330 0.245032 0.500000 
691 1 0.907568 0.228097 0.500000 
692 1 0.917345 0.245179 0.500000 
693 1 0.927574 0.228249 0.500000 
694 1 0.937364 0.245320 0.500000 
695 1 0.947580 0.228392 0.500000 
696 1 0.957383 0.245436 0.500000 
697 1 0.967605 0.228489 0.500000 
698 1 0.977417 0.245522 0.500000 
699 1 0.987634 0.228577 0.500000 
700 1 0.997455 0.245600 0.500000 
701 1 0.007189 0.234587 0.500000 
702 1 0.016737 0.251640 0.500000 
703 1 0.027214 0.235215 0.500000 
704 1 0.036760 0.252274 0.500000 
705 1 0.047243 0.235854 0.500000 
706 1 0.056787 0.252921 0.500000 
707 1 0.067275 0.236508 0.500000 
708 1 0.076849 0.253619 0.500000 
709 1 0.087351 0.237244 0.500000 
710 1 0.096917 0.254365 0.500000 
711 1 0.107429 0.237996 0.500000 
712 1 0.116988 0.255130 0.500000 
713 1 0.127504 0.238769 0.500000 
714 1 0.137065 0.255913 0.500000 
715 1 0.147576 0.239546 0.500000 
716 1 0.157141 0.256701 0.500000 
717 1 0.167642 0.240332 0.500000 
718 1 0.177217 0.257507 0.500000 
719 1 0.187717 0.241145 0.500000 
720 1 0.197294 0.258343 0.500000 
721 1 0.207785 0.241973 0.500000 
722 1 0.217370 0.259195 0.500000 
723 1 0.227851 0.242821 0.500000 
724 1 0.237438 0.260068 0.500000 
725 1 0.247913 0.243679 0.500000 
726 1 0.257496 0.260953 0.500000 
727 1 0.267970 0.244561 0.500000 
728 1 0.277554 0.261859 0.500000 
729 1 0.288014 0.245456 0.500000 
730 1 0.297606 0.262787 0.500000 
731 1 0.308047 0.246362 0.500000 
732 1 0.317638 0.263725 0.500000 
733 1 0.328067 0.247283 0.500000 
734 1 0.337659 0.264674 0.500000 
735 1 0.348074 0.248210 0.500000 
736 1 0.357666 0.265628 0.500000 
737 1 0.368064 0.249135 0.500000 
738 1 0.377658 0.266585 0.500000 
739 1 0.388037 0.250055 0.500000 
740 1 0.397627 0.267527 0.500000 
741 1 0.407999 0.250958 0.500000 
742 1 0.417576 0.268444 0.500000 
743 1 0.427947 0.251838 0.500000 
744 1 0.437513 0.269340 0.500000 
745 1 0.447876 0.252694 0.500000 
746 1 0.457443 0.270195 0.500000 
747 1 0.467799 0.253508 0.500000 
748 1 0.477369 0.271007 0.500000 
749 1 0.487720 0.254285 0.500000 
750 1 0.497294 0.271773 0.500000 
751 1 0.507639 0.255009 0.500000 
752 1 0.517215 0.272470 0.500000 
753 1 0.527560 0.255672 0.500000 
754 1 0.537140 0.273115 0.500000 
755 1 0.547487 0.256297 0.500000 
756 1 0.557079 0.273714 0.500000 
757 1 0.567418 0.256881 0.500000 
758 1 0.577027 0.274269 0.500000 
759 1 0.587359 0.257416 0.500000 
760 1 0.596976 0.274787 0.500000 
761 1 0.607302 0.257915 0.500000 
762 1 0.616932 0.275258 0.500000 
763 1 0.627257 0.258379 0.500000 
764 1 0.636896 0.275699 0.500000 
765 1 0.647215 0.258810 0.500000 
766 1 0.656865 0.276103 0.500000 
767 1 0.667179 0.259202 0.500000 
768 1 0.676834 0.276477 0.500000 
769 1 0.687143 0.259565 0.500000 
770 1 0.696807 0.276820 0.500000 
771 1 0.707114 0.259905 0.500000 
772 1 0.716793 0.277137 0.500000 
773 1 0.727091 0.260214 0.500000 
774 1 0.736788 0.277427 0.500000 
775 1 0.747075 0.260502 0.500000 
776 1 0.756785 0.277701 0.500000 
777 1 0.767063 0.260768 0.500000 
778 1 0.776790 0.277949 0.500000 
779 1 0.787057 0.261015 0.500000 
780 1 0.796795 0.278173 0.500000 
781 1 0.807056 0.261241 0.500000 
782 1 0.816807 0.278378 0.500000 
783 1 0.827061 0.261441 0.500000 
784 1 0.836820 0.278565 0.500000 
785 1 0.847070 0.261623 0.500000 
786 1 0.856838 0.278734 0.500000 
787 1 0.867086 0.261800 0.500000 
788 1 0.876862 0.278899 0.500000 
789 1 0.887097 0.261962 0.500000 
790 1 0.896882 0.279055 0.500000 
791 1 0.907112 0.262118 0.500000 
792 1 0.916912 0.279191 0.500000 
793 1 0.927133 0.262254 0.500000 
794 1 0.936945 0.279315 0.500000 
795 1 0.947159 0.262387 0.500000 
796 1 0.956982 0.279417 0.500000 
797 1 0.967200 0.262468 0.500000 
798 1 0.977036 0.279488 0.500000 
799 1 0.987245 0.262544 0.500000 
800 1 0.997089 0.279555 0.500000 
801 1 0.006256 0.268068 0.500000 
802 1 0.015779 0.285121 0.500000 
803 1 0.026272 0.268696 0.500000 
804 1 0.035792 0.285753 0.500000 
805 1 0.046292 0.269335 0.500000 
806 1 0.055810 0.286400 0.500000 
807 1 0.066319 0.269991 0.500000 
808 1 0.075853 0.287104 0.500000 
809 1 0.086388 0.270734 0.500000 
810 1 0.095911 0.287851 0.500000 
811 1 0.106457 0.271494 0.500000 
812 1 0.115982 0.288623 0.500000 
813 1 0.126527 0.272267 0.500000 
814 1 0.136058 0.289403 0.500000 
815 1 0.146610 0.273059 0.500000 
816 1 0.156148 0.290206 0.500000 
817 1 0.166695 0.273861 0.500000 
818 1 0.176231 0.291037 0.500000 
819 1 0.186775 0.274695 0.500000 
820 1 0.196314 0.291891 0.500000 
821 1 0.206853 0.275550 0.500000 
822 1 0.216398 0.292763 0.500000 
823 1 0.226933 0.276428 0.500000 
824 1 0.236483 0.293670 0.500000 
825 1 0.247006 0.277327 0.500000 
826 1 0.256562 0.294594 0.500000 
827 1 0.267072 0.278239 0.500000 
828 1 0.276628 0.295546 0.500000 
829 1 0.287131 0.279175 0.500000 
830 1 0.296683 0.296519 0.500000 
831 1 0.307182 0.280142 0.500000 
832 1 0.316737 0.297513 0.500000 
833 1 0.327213 0.281108 0.500000 
834 1 0.336774 0.298515 0.500000 
835 1 0.347232 0.282090 0.500000 
836 1 0.356795 0.299536 0.500000 
837 1 0.367235 0.283071 0.500000 
838 1 0.376795 0.300546 0.500000 
839 1 0.387229 0.284060 0.500000 
840 1 0.396781 0.301564 0.500000 
841 1 0.407199 0.285027 0.500000 
842 1 0.416743 0.302555 0.500000 
843 1 0.427146 0.285963 0.500000 
844 1 0.436686 0.303508 0.500000 
845 1 0.447083 0.286862 0.500000 
846 1 0.456616 0.304415 0.500000 
847 1 0.467006 0.287719 0.500000 
848 1 0.476547 0.305258 0.500000 
849 1 0.486927 0.288521 0.500000 
850 1 0.496473 0.306041 0.500000 
851 1 0.506855 0.289264 0.500000 
852 1 0.516406 0.306752 0.500000 
853 1 0.526783 0.289936 0.500000 
854 1 0.536349 0.307393 0.500000 
855 1 0.546718 0.290553 0.500000 
856 1 0.556299 0.307978 0.500000 
857 1 0.566664 0.291120 0.500000 
858 1 0.576254 0.308524 0.500000 
859 1 0.586616 0.291654 0.500000 
860 1 0.596225 0.309025 0.500000 
861 1 0.606581 0.292143 0.500000 
862 1 0.616202 0.309487 0.500000 
863 1 0.626550 0.292586 0.500000 
864 1 0.636181 0.309906 0.500000 
865 1 0.646528 0.293004 0.500000 
866 1 0.656172 0.310297 0.500000 
867 1 0.666514 0.293387 0.500000 
868 1 0.676171 0.310658 0.500000 
869 1 0.686500 0.293742 0.500000 
870 1 0.696180 0.310987 0.500000 
871 1 0.706489 0.294062 0.500000 
872 1 0.716193 0.311283 0.500000 
873 1 0.726489 0.294352 0.500000 
874 1 0.736206 0.311557 0.500000 
875 1 0.746497 0.294633 0.500000 
876 1 0.756231 0.311817 0.500000 
877 1 0.766514 0.294880 0.500000 
878 1 0.776259 0.312051 0.500000 
879 1 0.786533 0.295115 0.500000 
880 1 0.796289 0.312268 0.500000 
881 1 0.806545 0.295316 0.500000 