ITEM: TIMESTEP
3200
ITEM: NUMBER OF ATOMS
2850
ITEM: BOX BOUNDS ss ss pp
-28.0536 28.3253 
-28.9988 28.9984 
-0.5 0.5 
ITEM: ATOMS id type xs ys zs
1 1 0.012661 0.000000 0.500000 
2 1 0.022340 0.017073 0.500000 
3 1 0.032688 0.000597 0.500000 
4 1 0.042369 0.017677 0.500000 
5 1 0.052715 0.001202 0.500000 
6 1 0.062397 0.018289 0.500000 
7 1 0.072742 0.001814 0.500000 
8 1 0.082426 0.018911 0.500000 
9 1 0.092767 0.002433 0.500000 
10 1 0.102455 0.019539 0.500000 
11 1 0.112794 0.003060 0.500000 
12 1 0.122484 0.020177 0.500000 
13 1 0.132817 0.003697 0.500000 
14 1 0.142511 0.020822 0.500000 
15 1 0.152841 0.004338 0.500000 
16 1 0.162536 0.021475 0.500000 
17 1 0.172861 0.004988 0.500000 
18 1 0.182559 0.022136 0.500000 
19 1 0.192879 0.005643 0.500000 
20 1 0.202579 0.022803 0.500000 
21 1 0.212895 0.006305 0.500000 
22 1 0.222596 0.023475 0.500000 
23 1 0.232906 0.006973 0.500000 
24 1 0.242610 0.024155 0.500000 
25 1 0.252912 0.007645 0.500000 
26 1 0.262618 0.024839 0.500000 
27 1 0.272914 0.008319 0.500000 
28 1 0.282622 0.025527 0.500000 
29 1 0.292911 0.008997 0.500000 
30 1 0.302619 0.026217 0.500000 
31 1 0.312901 0.009676 0.500000 
32 1 0.322610 0.026908 0.500000 
33 1 0.332885 0.010356 0.500000 
34 1 0.342593 0.027600 0.500000 
35 1 0.352861 0.011033 0.500000 
36 1 0.362570 0.028289 0.500000 
37 1 0.372830 0.011707 0.500000 
38 1 0.382537 0.028974 0.500000 
39 1 0.392791 0.012376 0.500000 
40 1 0.402497 0.029655 0.500000 
41 1 0.412744 0.013039 0.500000 
42 1 0.422448 0.030326 0.500000 
43 1 0.432688 0.013694 0.500000 
44 1 0.442390 0.030989 0.500000 
45 1 0.452624 0.014337 0.500000 
46 1 0.462324 0.031639 0.500000 
47 1 0.472553 0.014968 0.500000 
48 1 0.482250 0.032276 0.500000 
49 1 0.492474 0.015584 0.500000 
50 1 0.502167 0.032896 0.500000 
51 1 0.512388 0.016184 0.500000 
52 1 0.522078 0.033498 0.500000 
53 1 0.532295 0.016766 0.500000 
54 1 0.541983 0.034081 0.500000 
55 1 0.552198 0.017330 0.500000 
56 1 0.561882 0.034643 0.500000 
57 1 0.572095 0.017873 0.500000 
58 1 0.581777 0.035184 0.500000 
59 1 0.591989 0.018396 0.500000 
60 1 0.601668 0.035702 0.500000 
61 1 0.611880 0.018896 0.500000 
62 1 0.621558 0.036195 0.500000 
63 1 0.631769 0.019373 0.500000 
64 1 0.641446 0.036666 0.500000 
65 1 0.651657 0.019829 0.500000 
66 1 0.661334 0.037110 0.500000 
67 1 0.671546 0.020261 0.500000 
68 1 0.681223 0.037533 0.500000 
69 1 0.691436 0.020670 0.500000 
70 1 0.701115 0.037931 0.500000 
71 1 0.711328 0.021058 0.500000 
72 1 0.721007 0.038307 0.500000 
73 1 0.731222 0.021423 0.500000 
74 1 0.740905 0.038660 0.500000 
75 1 0.751120 0.021768 0.500000 
76 1 0.760806 0.038993 0.500000 
77 1 0.771021 0.022094 0.500000 
78 1 0.780711 0.039305 0.500000 
79 1 0.790927 0.022399 0.500000 
80 1 0.800620 0.039597 0.500000 
81 1 0.810837 0.022687 0.500000 
82 1 0.820536 0.039873 0.500000 
83 1 0.830751 0.022958 0.500000 
84 1 0.840456 0.040130 0.500000 
85 1 0.850671 0.023211 0.500000 
86 1 0.860382 0.040369 0.500000 
87 1 0.870595 0.023449 0.500000 
88 1 0.880312 0.040595 0.500000 
89 1 0.890525 0.023674 0.500000 
90 1 0.900248 0.040807 0.500000 
91 1 0.910459 0.023884 0.500000 
92 1 0.920188 0.041005 0.500000 
93 1 0.930398 0.024080 0.500000 
94 1 0.940134 0.041192 0.500000 
95 1 0.950341 0.024267 0.500000 
96 1 0.960084 0.041368 0.500000 
97 1 0.970290 0.024443 0.500000 
98 1 0.980040 0.041531 0.500000 
99 1 0.990243 0.024606 0.500000 
100 1 1.000000 0.041686 0.500000 
101 1 0.011983 0.033545 0.500000 
102 1 0.021650 0.050615 0.500000 
103 1 0.032014 0.034148 0.500000 
104 1 0.041680 0.051227 0.500000 
105 1 0.052044 0.034760 0.500000 
106 1 0.061715 0.051847 0.500000 
107 1 0.072075 0.035381 0.500000 
108 1 0.081751 0.052476 0.500000 
109 1 0.092107 0.036012 0.500000 
110 1 0.101794 0.053121 0.500000 
111 1 0.112138 0.036650 0.500000 
112 1 0.121826 0.053787 0.500000 
113 1 0.132168 0.037297 0.500000 
114 1 0.141861 0.054435 0.500000 
115 1 0.152197 0.037952 0.500000 
116 1 0.161896 0.055116 0.500000 
117 1 0.172226 0.038617 0.500000 
118 1 0.181915 0.055794 0.500000 
119 1 0.192251 0.039288 0.500000 
120 1 0.201943 0.056473 0.500000 
121 1 0.212274 0.039967 0.500000 
122 1 0.221971 0.057170 0.500000 
123 1 0.232293 0.040654 0.500000 
124 1 0.241990 0.057872 0.500000 
125 1 0.252309 0.041345 0.500000 
126 1 0.262001 0.058576 0.500000 
127 1 0.272318 0.042042 0.500000 
128 1 0.282003 0.059283 0.500000 
129 1 0.292324 0.042743 0.500000 
130 1 0.302002 0.060001 0.500000 
131 1 0.312323 0.043447 0.500000 
132 1 0.322001 0.060720 0.500000 
133 1 0.332314 0.044150 0.500000 
134 1 0.341988 0.061437 0.500000 
135 1 0.352297 0.044856 0.500000 
136 1 0.361969 0.062143 0.500000 
137 1 0.372273 0.045557 0.500000 
138 1 0.381940 0.062864 0.500000 
139 1 0.392240 0.046254 0.500000 
140 1 0.401900 0.063572 0.500000 
141 1 0.412198 0.046944 0.500000 
142 1 0.421854 0.064264 0.500000 
143 1 0.432147 0.047626 0.500000 
144 1 0.441792 0.064962 0.500000 
145 1 0.452087 0.048297 0.500000 
146 1 0.461717 0.065640 0.500000 
147 1 0.472018 0.048954 0.500000 
148 1 0.481648 0.066296 0.500000 
149 1 0.491940 0.049595 0.500000 
150 1 0.501571 0.066939 0.500000 
151 1 0.511855 0.050220 0.500000 
152 1 0.521479 0.067568 0.500000 
153 1 0.531762 0.050823 0.500000 
154 1 0.541378 0.068169 0.500000 
155 1 0.551663 0.051406 0.500000 
156 1 0.561282 0.068747 0.500000 
157 1 0.571560 0.051966 0.500000 
158 1 0.581183 0.069303 0.500000 
159 1 0.591452 0.052503 0.500000 
160 1 0.601081 0.069828 0.500000 
161 1 0.611341 0.053013 0.500000 
162 1 0.620978 0.070332 0.500000 
163 1 0.631230 0.053499 0.500000 
164 1 0.640873 0.070804 0.500000 
165 1 0.651117 0.053960 0.500000 
166 1 0.660765 0.071248 0.500000 
167 1 0.671006 0.054396 0.500000 
168 1 0.680657 0.071663 0.500000 
169 1 0.690897 0.054806 0.500000 
170 1 0.700554 0.072063 0.500000 
171 1 0.710789 0.055192 0.500000 
172 1 0.720454 0.072438 0.500000 
173 1 0.730685 0.055554 0.500000 
174 1 0.740360 0.072777 0.500000 
175 1 0.750586 0.055894 0.500000 
176 1 0.760268 0.073103 0.500000 
177 1 0.770490 0.056213 0.500000 
178 1 0.780182 0.073405 0.500000 
179 1 0.790400 0.056511 0.500000 
180 1 0.800105 0.073686 0.500000 
181 1 0.810316 0.056789 0.500000 
182 1 0.820030 0.073957 0.500000 
183 1 0.830238 0.057049 0.500000 
184 1 0.839958 0.074204 0.500000 
185 1 0.850164 0.057294 0.500000 
186 1 0.859892 0.074437 0.500000 
187 1 0.870095 0.057522 0.500000 
188 1 0.879836 0.074653 0.500000 
189 1 0.890032 0.057734 0.500000 
190 1 0.899776 0.074854 0.500000 
191 1 0.909975 0.057934 0.500000 
192 1 0.919722 0.075046 0.500000 
193 1 0.929922 0.058120 0.500000 
194 1 0.939675 0.075219 0.500000 
195 1 0.949875 0.058294 0.500000 
196 1 0.959621 0.075390 0.500000 
197 1 0.969833 0.058458 0.500000 
198 1 0.979588 0.075542 0.500000 
199 1 0.989796 0.058613 0.500000 
200 1 0.999557 0.075685 0.500000 
201 1 0.011275 0.067077 0.500000 
202 1 0.020924 0.084144 0.500000 
203 1 0.031308 0.067688 0.500000 
204 1 0.040959 0.084763 0.500000 
205 1 0.051342 0.068307 0.500000 
206 1 0.060994 0.085390 0.500000 
207 1 0.071376 0.068936 0.500000 
208 1 0.081049 0.086037 0.500000 
209 1 0.091424 0.069579 0.500000 
210 1 0.101093 0.086709 0.500000 
211 1 0.111463 0.070255 0.500000 
212 1 0.121148 0.087385 0.500000 
213 1 0.131505 0.070918 0.500000 
214 1 0.141188 0.088062 0.500000 
215 1 0.151541 0.071588 0.500000 
216 1 0.161210 0.088765 0.500000 
217 1 0.171574 0.072297 0.500000 
218 1 0.181250 0.089462 0.500000 
219 1 0.191606 0.072972 0.500000 
220 1 0.201278 0.090161 0.500000 
221 1 0.211632 0.073670 0.500000 
222 1 0.221301 0.090880 0.500000 
223 1 0.231650 0.074383 0.500000 
224 1 0.241329 0.091591 0.500000 
225 1 0.251673 0.075092 0.500000 
226 1 0.261348 0.092324 0.500000 
227 1 0.271688 0.075816 0.500000 
228 1 0.281363 0.093068 0.500000 
229 1 0.291688 0.076538 0.500000 
230 1 0.301363 0.093802 0.500000 
231 1 0.311690 0.077267 0.500000 
232 1 0.321359 0.094550 0.500000 
233 1 0.331686 0.078011 0.500000 
234 1 0.341354 0.095301 0.500000 
235 1 0.351666 0.078725 0.500000 
236 1 0.361323 0.096035 0.500000 
237 1 0.371634 0.079451 0.500000 
238 1 0.381282 0.096776 0.500000 
239 1 0.391597 0.080184 0.500000 
240 1 0.401244 0.097507 0.500000 
241 1 0.411554 0.080894 0.500000 
242 1 0.421195 0.098241 0.500000 
243 1 0.431497 0.081604 0.500000 
244 1 0.441133 0.098960 0.500000 
245 1 0.451434 0.082312 0.500000 
246 1 0.461067 0.099670 0.500000 
247 1 0.471364 0.082991 0.500000 
248 1 0.480996 0.100352 0.500000 
249 1 0.491291 0.083649 0.500000 
250 1 0.500913 0.101022 0.500000 
251 1 0.511209 0.084304 0.500000 
252 1 0.520826 0.101675 0.500000 
253 1 0.531113 0.084930 0.500000 
254 1 0.540731 0.102293 0.500000 
255 1 0.551015 0.085522 0.500000 
256 1 0.560626 0.102881 0.500000 
257 1 0.570913 0.086096 0.500000 
258 1 0.580529 0.103439 0.500000 
259 1 0.590810 0.086639 0.500000 
260 1 0.600432 0.103975 0.500000 
261 1 0.610707 0.087158 0.500000 
262 1 0.620343 0.104481 0.500000 
263 1 0.630609 0.087643 0.500000 
264 1 0.640246 0.104946 0.500000 
265 1 0.650509 0.088100 0.500000 
266 1 0.660151 0.105388 0.500000 
267 1 0.670405 0.088533 0.500000 
268 1 0.680063 0.105807 0.500000 
269 1 0.690303 0.088934 0.500000 
270 1 0.699973 0.106192 0.500000 
271 1 0.710208 0.089315 0.500000 
272 1 0.719886 0.106558 0.500000 
273 1 0.730117 0.089664 0.500000 
274 1 0.739801 0.106887 0.500000 
275 1 0.750031 0.089991 0.500000 
276 1 0.759722 0.107198 0.500000 
277 1 0.769953 0.090304 0.500000 
278 1 0.779649 0.107493 0.500000 
279 1 0.789873 0.090587 0.500000 
280 1 0.799575 0.107765 0.500000 
281 1 0.809795 0.090858 0.500000 
282 1 0.819503 0.108020 0.500000 
283 1 0.829732 0.091112 0.500000 
284 1 0.839439 0.108260 0.500000 
285 1 0.849677 0.091351 0.500000 
286 1 0.859385 0.108489 0.500000 
287 1 0.869620 0.091568 0.500000 
288 1 0.879334 0.108696 0.500000 
289 1 0.889563 0.091776 0.500000 
290 1 0.899288 0.108891 0.500000 
291 1 0.909507 0.091967 0.500000 
292 1 0.919243 0.109071 0.500000 
293 1 0.929461 0.092145 0.500000 
294 1 0.939199 0.109250 0.500000 
295 1 0.949407 0.092323 0.500000 
296 1 0.959160 0.109410 0.500000 
297 1 0.969375 0.092475 0.500000 
298 1 0.979136 0.109550 0.500000 
299 1 0.989349 0.092617 0.500000 
300 1 0.999117 0.109681 0.500000 
301 1 0.010532 0.100598 0.500000 
302 1 0.020165 0.117663 0.500000 
303 1 0.030566 0.101214 0.500000 
304 1 0.040201 0.118287 0.500000 
305 1 0.050602 0.101839 0.500000 
306 1 0.060239 0.118920 0.500000 
307 1 0.070640 0.102476 0.500000 
308 1 0.080288 0.119588 0.500000 
309 1 0.090694 0.103157 0.500000 
310 1 0.100346 0.120270 0.500000 
311 1 0.110750 0.103829 0.500000 
312 1 0.120398 0.120959 0.500000 
313 1 0.130804 0.104521 0.500000 
314 1 0.140443 0.121672 0.500000 
315 1 0.150837 0.105226 0.500000 
316 1 0.160490 0.122377 0.500000 
317 1 0.170878 0.105925 0.500000 
318 1 0.180535 0.123099 0.500000 
319 1 0.190915 0.106638 0.500000 
320 1 0.200578 0.123824 0.500000 
321 1 0.210951 0.107360 0.500000 
322 1 0.220620 0.124553 0.500000 
323 1 0.230987 0.108086 0.500000 
324 1 0.240649 0.125317 0.500000 
325 1 0.251000 0.108823 0.500000 
326 1 0.260665 0.126065 0.500000 
327 1 0.271018 0.109569 0.500000 
328 1 0.280680 0.126823 0.500000 
329 1 0.291036 0.110330 0.500000 
330 1 0.300691 0.127601 0.500000 
331 1 0.311037 0.111082 0.500000 
332 1 0.320684 0.128375 0.500000 
333 1 0.331025 0.111844 0.500000 
334 1 0.340666 0.129160 0.500000 
335 1 0.351003 0.112612 0.500000 
336 1 0.360644 0.129946 0.500000 
337 1 0.370969 0.113370 0.500000 
338 1 0.380616 0.130710 0.500000 
339 1 0.390933 0.114110 0.500000 
340 1 0.400571 0.131479 0.500000 
341 1 0.410886 0.114864 0.500000 
342 1 0.420517 0.132237 0.500000 
343 1 0.430832 0.115608 0.500000 
344 1 0.440458 0.132979 0.500000 
345 1 0.450767 0.116334 0.500000 
346 1 0.460394 0.133717 0.500000 
347 1 0.470693 0.117038 0.500000 
348 1 0.480317 0.134427 0.500000 
349 1 0.490613 0.117729 0.500000 
350 1 0.500233 0.135119 0.500000 
351 1 0.510532 0.118405 0.500000 
352 1 0.520148 0.135794 0.500000 
353 1 0.530442 0.119044 0.500000 
354 1 0.540057 0.136426 0.500000 
355 1 0.550351 0.119662 0.500000 
356 1 0.559970 0.137026 0.500000 
357 1 0.570259 0.120234 0.500000 
358 1 0.579877 0.137595 0.500000 
359 1 0.590163 0.120788 0.500000 
360 1 0.599786 0.138130 0.500000 
361 1 0.610073 0.121304 0.500000 
362 1 0.619700 0.138628 0.500000 
363 1 0.629985 0.121794 0.500000 
364 1 0.639615 0.139096 0.500000 
365 1 0.649891 0.122242 0.500000 
366 1 0.659531 0.139536 0.500000 
367 1 0.669799 0.122669 0.500000 
368 1 0.679450 0.139950 0.500000 
369 1 0.689714 0.123070 0.500000 
370 1 0.699370 0.140328 0.500000 
371 1 0.709629 0.123440 0.500000 
372 1 0.719296 0.140680 0.500000 
373 1 0.729552 0.123789 0.500000 
374 1 0.739228 0.141006 0.500000 
375 1 0.749472 0.124097 0.500000 
376 1 0.759154 0.141301 0.500000 
377 1 0.769400 0.124393 0.500000 
378 1 0.779090 0.141574 0.500000 
379 1 0.789337 0.124668 0.500000 
380 1 0.799032 0.141839 0.500000 
381 1 0.809272 0.124933 0.500000 
382 1 0.818984 0.142091 0.500000 
383 1 0.829212 0.125176 0.500000 
384 1 0.838938 0.142324 0.500000 
385 1 0.849157 0.125403 0.500000 
386 1 0.858889 0.142534 0.500000 
387 1 0.869109 0.125617 0.500000 
388 1 0.878840 0.142734 0.500000 
389 1 0.889065 0.125812 0.500000 
390 1 0.898797 0.142929 0.500000 
391 1 0.909024 0.126001 0.500000 
392 1 0.918763 0.143111 0.500000 
393 1 0.928983 0.126181 0.500000 
394 1 0.938734 0.143281 0.500000 
395 1 0.948940 0.126349 0.500000 
396 1 0.958701 0.143428 0.500000 
397 1 0.968919 0.126487 0.500000 
398 1 0.978689 0.143555 0.500000 
399 1 0.988905 0.126616 0.500000 
400 1 0.998682 0.143674 0.500000 
401 1 0.009754 0.134110 0.500000 
402 1 0.019367 0.151171 0.500000 
403 1 0.029790 0.134729 0.500000 
404 1 0.039403 0.151799 0.500000 
405 1 0.049825 0.135360 0.500000 
406 1 0.059442 0.152437 0.500000 
407 1 0.069865 0.136003 0.500000 
408 1 0.079497 0.153104 0.500000 
409 1 0.089933 0.136695 0.500000 
410 1 0.099561 0.153805 0.500000 
411 1 0.109991 0.137390 0.500000 
412 1 0.119615 0.154524 0.500000 
413 1 0.130035 0.138101 0.500000 
414 1 0.139672 0.155238 0.500000 
415 1 0.150085 0.138816 0.500000 
416 1 0.159728 0.155970 0.500000 
417 1 0.170136 0.139541 0.500000 
418 1 0.179782 0.156713 0.500000 
419 1 0.190188 0.140277 0.500000 
420 1 0.199833 0.157465 0.500000 
421 1 0.210236 0.141014 0.500000 
422 1 0.219868 0.158233 0.500000 
423 1 0.230267 0.141780 0.500000 
424 1 0.239912 0.159012 0.500000 
425 1 0.250297 0.142555 0.500000 
426 1 0.259947 0.159804 0.500000 
427 1 0.270317 0.143316 0.500000 
428 1 0.279961 0.160598 0.500000 
429 1 0.290325 0.144099 0.500000 
430 1 0.299976 0.161388 0.500000 
431 1 0.310336 0.144894 0.500000 
432 1 0.319981 0.162206 0.500000 
433 1 0.330332 0.145692 0.500000 
434 1 0.339969 0.163026 0.500000 
435 1 0.350313 0.146495 0.500000 
436 1 0.359948 0.163839 0.500000 
437 1 0.370286 0.147288 0.500000 
438 1 0.379917 0.164646 0.500000 
439 1 0.390244 0.148071 0.500000 
440 1 0.399875 0.165442 0.500000 
441 1 0.410202 0.148851 0.500000 
442 1 0.419830 0.166236 0.500000 
443 1 0.430150 0.149615 0.500000 
444 1 0.439771 0.167024 0.500000 
445 1 0.450080 0.150370 0.500000 
446 1 0.459699 0.167791 0.500000 
447 1 0.470011 0.151119 0.500000 
448 1 0.479626 0.168540 0.500000 
449 1 0.489934 0.151834 0.500000 
450 1 0.499544 0.169261 0.500000 
451 1 0.509846 0.152529 0.500000 
452 1 0.519459 0.169936 0.500000 
453 1 0.529758 0.153189 0.500000 
454 1 0.539372 0.170577 0.500000 
455 1 0.549671 0.153803 0.500000 
456 1 0.559284 0.171183 0.500000 
457 1 0.569587 0.154399 0.500000 
458 1 0.579206 0.171767 0.500000 
459 1 0.589500 0.154950 0.500000 
460 1 0.599120 0.172296 0.500000 
461 1 0.609419 0.155463 0.500000 
462 1 0.619036 0.172800 0.500000 
463 1 0.629333 0.155950 0.500000 
464 1 0.638956 0.173261 0.500000 
465 1 0.649250 0.156397 0.500000 
466 1 0.658882 0.173696 0.500000 
467 1 0.669176 0.156824 0.500000 
468 1 0.678814 0.174102 0.500000 
469 1 0.689108 0.157218 0.500000 
470 1 0.698752 0.174476 0.500000 
471 1 0.709042 0.157580 0.500000 
472 1 0.718698 0.174811 0.500000 
473 1 0.728981 0.157905 0.500000 
474 1 0.738638 0.175124 0.500000 
475 1 0.748917 0.158219 0.500000 
476 1 0.758588 0.175418 0.500000 
477 1 0.768855 0.158498 0.500000 
478 1 0.778546 0.175685 0.500000 
479 1 0.788798 0.158758 0.500000 
480 1 0.798501 0.175930 0.500000 
481 1 0.808747 0.159007 0.500000 
482 1 0.818459 0.176165 0.500000 
483 1 0.828703 0.159243 0.500000 
484 1 0.838425 0.176380 0.500000 
485 1 0.848661 0.159456 0.500000 
486 1 0.858388 0.176586 0.500000 
487 1 0.868613 0.159659 0.500000 
488 1 0.878349 0.176782 0.500000 
489 1 0.888575 0.159855 0.500000 
490 1 0.898315 0.176970 0.500000 
491 1 0.908541 0.160040 0.500000 
492 1 0.918293 0.177133 0.500000 
493 1 0.928512 0.160207 0.500000 
494 1 0.938272 0.177299 0.500000 
495 1 0.948477 0.160370 0.500000 
496 1 0.958249 0.177440 0.500000 
497 1 0.968470 0.160496 0.500000 
498 1 0.978251 0.177553 0.500000 
499 1 0.988467 0.160611 0.500000 
500 1 0.998258 0.177659 0.500000 
501 1 0.008938 0.167610 0.500000 
502 1 0.018532 0.184668 0.500000 
503 1 0.028972 0.168234 0.500000 
504 1 0.038566 0.185299 0.500000 
505 1 0.049008 0.168868 0.500000 
506 1 0.058602 0.185942 0.500000 
507 1 0.069047 0.169517 0.500000 
508 1 0.078657 0.186617 0.500000 
509 1 0.089115 0.170212 0.500000 
510 1 0.098715 0.187340 0.500000 
511 1 0.109171 0.170936 0.500000 
512 1 0.118784 0.188064 0.500000 
513 1 0.129234 0.171654 0.500000 
514 1 0.138845 0.188804 0.500000 
515 1 0.149294 0.172391 0.500000 
516 1 0.158907 0.189557 0.500000 
517 1 0.169351 0.173140 0.500000 
518 1 0.178975 0.190313 0.500000 
519 1 0.189413 0.173894 0.500000 
520 1 0.199031 0.191097 0.500000 
521 1 0.209465 0.174678 0.500000 
522 1 0.219091 0.191885 0.500000 
523 1 0.229511 0.175450 0.500000 
524 1 0.239128 0.192692 0.500000 
525 1 0.249549 0.176258 0.500000 
526 1 0.259164 0.193515 0.500000 
527 1 0.269580 0.177073 0.500000 
528 1 0.279208 0.194331 0.500000 
529 1 0.289608 0.177874 0.500000 
530 1 0.299234 0.195178 0.500000 
531 1 0.309611 0.178698 0.500000 
532 1 0.319238 0.196038 0.500000 
533 1 0.329605 0.179538 0.500000 
534 1 0.339235 0.196886 0.500000 
535 1 0.349598 0.180375 0.500000 
536 1 0.359227 0.197748 0.500000 
537 1 0.369577 0.181203 0.500000 
538 1 0.379203 0.198594 0.500000 
539 1 0.389544 0.182025 0.500000 
540 1 0.399166 0.199432 0.500000 
541 1 0.409500 0.182842 0.500000 
542 1 0.419115 0.200272 0.500000 
543 1 0.429444 0.183657 0.500000 
544 1 0.439053 0.201090 0.500000 
545 1 0.449379 0.184451 0.500000 
546 1 0.458980 0.201893 0.500000 
547 1 0.469307 0.185225 0.500000 
548 1 0.478903 0.202671 0.500000 
549 1 0.489232 0.185977 0.500000 
550 1 0.498828 0.203417 0.500000 
551 1 0.509150 0.186681 0.500000 
552 1 0.518752 0.204109 0.500000 
553 1 0.529063 0.187344 0.500000 
554 1 0.538675 0.204763 0.500000 
555 1 0.548978 0.187973 0.500000 
556 1 0.558591 0.205381 0.500000 
557 1 0.568891 0.188569 0.500000 
558 1 0.578509 0.205958 0.500000 
559 1 0.588808 0.189128 0.500000 
560 1 0.598432 0.206494 0.500000 
561 1 0.608731 0.189645 0.500000 
562 1 0.618366 0.206986 0.500000 
563 1 0.628663 0.190125 0.500000 
564 1 0.638299 0.207442 0.500000 
565 1 0.648594 0.190567 0.500000 
566 1 0.658231 0.207867 0.500000 
567 1 0.668530 0.190985 0.500000 
568 1 0.678172 0.208269 0.500000 
569 1 0.688469 0.191371 0.500000 
570 1 0.698124 0.208625 0.500000 
571 1 0.708419 0.191715 0.500000 
572 1 0.718082 0.208952 0.500000 
573 1 0.728368 0.192039 0.500000 
574 1 0.738040 0.209256 0.500000 
575 1 0.748313 0.192332 0.500000 
576 1 0.758000 0.209527 0.500000 
577 1 0.768272 0.192602 0.500000 
578 1 0.777961 0.209788 0.500000 
579 1 0.788232 0.192858 0.500000 
580 1 0.797933 0.210023 0.500000 
581 1 0.808199 0.193090 0.500000 
582 1 0.817906 0.210243 0.500000 
583 1 0.828172 0.193309 0.500000 
584 1 0.837878 0.210451 0.500000 
585 1 0.848141 0.193517 0.500000 
586 1 0.857855 0.210651 0.500000 
587 1 0.868106 0.193715 0.500000 
588 1 0.877840 0.210832 0.500000 
589 1 0.888080 0.193902 0.500000 
590 1 0.897831 0.211007 0.500000 
591 1 0.908063 0.194068 0.500000 
592 1 0.917822 0.211165 0.500000 
593 1 0.928045 0.194228 0.500000 
594 1 0.937811 0.211318 0.500000 
595 1 0.948021 0.194385 0.500000 
596 1 0.957807 0.211443 0.500000 
597 1 0.968031 0.194496 0.500000 
598 1 0.977825 0.211543 0.500000 
599 1 0.988043 0.194599 0.500000 
600 1 0.997847 0.211634 0.500000 
601 1 0.008083 0.201103 0.500000 
602 1 0.017654 0.218157 0.500000 
603 1 0.028113 0.201727 0.500000 
604 1 0.037684 0.218790 0.500000 
605 1 0.048147 0.202367 0.500000 
606 1 0.057718 0.219436 0.500000 
607 1 0.068185 0.203017 0.500000 
608 1 0.077771 0.220120 0.500000 
609 1 0.088248 0.203732 0.500000 
610 1 0.097833 0.220843 0.500000 
611 1 0.108319 0.204459 0.500000 
612 1 0.117904 0.221587 0.500000 
613 1 0.128388 0.205204 0.500000 
614 1 0.137971 0.222343 0.500000 
615 1 0.148457 0.205957 0.500000 
616 1 0.158042 0.223107 0.500000 
617 1 0.168524 0.206721 0.500000 
618 1 0.178108 0.223904 0.500000 
619 1 0.188576 0.207508 0.500000 
620 1 0.198172 0.224697 0.500000 
621 1 0.208634 0.208298 0.500000 
622 1 0.218238 0.225507 0.500000 
623 1 0.228691 0.209111 0.500000 
624 1 0.238301 0.226347 0.500000 
625 1 0.248743 0.209940 0.500000 
626 1 0.258360 0.227197 0.500000 
627 1 0.268793 0.210775 0.500000 
628 1 0.278401 0.228067 0.500000 
629 1 0.288824 0.211629 0.500000 
630 1 0.298434 0.228948 0.500000 
631 1 0.308847 0.212507 0.500000 
632 1 0.318466 0.229840 0.500000 
633 1 0.328863 0.213381 0.500000 
634 1 0.338482 0.230750 0.500000 
635 1 0.348855 0.214259 0.500000 
636 1 0.358477 0.231651 0.500000 
637 1 0.368843 0.215138 0.500000 
638 1 0.378461 0.232548 0.500000 
639 1 0.388819 0.216002 0.500000 
640 1 0.398421 0.233445 0.500000 
641 1 0.408777 0.216870 0.500000 
642 1 0.418369 0.234328 0.500000 
643 1 0.428720 0.217718 0.500000 
644 1 0.438299 0.235197 0.500000 
645 1 0.448642 0.218549 0.500000 
646 1 0.458223 0.236033 0.500000 
647 1 0.468563 0.219354 0.500000 
648 1 0.478147 0.236833 0.500000 
649 1 0.488489 0.220129 0.500000 
650 1 0.498073 0.237596 0.500000 
651 1 0.508417 0.220861 0.500000 
652 1 0.517998 0.238312 0.500000 
653 1 0.528339 0.221542 0.500000 
654 1 0.537922 0.238981 0.500000 
655 1 0.548262 0.222189 0.500000 
656 1 0.557852 0.239604 0.500000 
657 1 0.568189 0.222787 0.500000 
658 1 0.577786 0.240185 0.500000 
659 1 0.588115 0.223340 0.500000 
660 1 0.597725 0.240707 0.500000 
661 1 0.608050 0.223847 0.500000 
662 1 0.617668 0.241199 0.500000 
663 1 0.627986 0.224323 0.500000 
664 1 0.637618 0.241649 0.500000 
665 1 0.647927 0.224756 0.500000 
666 1 0.657571 0.242069 0.500000 
667 1 0.667870 0.225166 0.500000 
668 1 0.677533 0.242447 0.500000 
669 1 0.687828 0.225540 0.500000 
670 1 0.697501 0.242795 0.500000 
671 1 0.707793 0.225872 0.500000 
672 1 0.717469 0.243114 0.500000 
673 1 0.727757 0.226183 0.500000 
674 1 0.737439 0.243397 0.500000 
675 1 0.747725 0.226458 0.500000 
676 1 0.757412 0.243658 0.500000 
677 1 0.767694 0.226720 0.500000 
678 1 0.777392 0.243899 0.500000 
679 1 0.787668 0.226963 0.500000 
680 1 0.797376 0.244132 0.500000 
681 1 0.807642 0.227184 0.500000 
682 1 0.817360 0.244330 0.500000 
683 1 0.827625 0.227388 0.500000 
684 1 0.837345 0.244524 0.500000 
685 1 0.847609 0.227588 0.500000 
686 1 0.857342 0.244709 0.500000 
687 1 0.867600 0.227772 0.500000 
688 1 0.877346 0.244879 0.500000 
689 1 0.887589 0.227940 0.500000 
690 1 0.897351 0.245033 0.500000 
691 1 0.907586 0.228101 0.500000 
692 1 0.917357 0.245189 0.500000 
693 1 0.927581 0.228254 0.500000 
694 1 0.937369 0.245323 0.500000 
695 1 0.947580 0.228392 0.500000 
696 1 0.957383 0.245436 0.500000 
697 1 0.967605 0.228489 0.500000 
698 1 0.977417 0.245522 0.500000 
699 1 0.987634 0.228577 0.500000 
700 1 0.997455 0.245600 0.500000 
701 1 0.007189 0.234587 0.500000 
702 1 0.016737 0.251640 0.500000 
703 1 0.027214 0.235215 0.500000 
704 1 0.036760 0.252274 0.500000 
705 1 0.047243 0.235854 0.500000 
706 1 0.056787 0.252921 0.500000 
707 1 0.067275 0.236508 0.500000 
708 1 0.076841 0.253616 0.500000 
709 1 0.087334 0.237230 0.500000 
710 1 0.096897 0.254340 0.500000 
711 1 0.107399 0.237960 0.500000 
712 1 0.116961 0.255088 0.500000 
713 1 0.127475 0.238721 0.500000 
714 1 0.137038 0.255857 0.500000 
715 1 0.147549 0.239485 0.500000 
716 1 0.157107 0.256641 0.500000 
717 1 0.167620 0.240277 0.500000 
718 1 0.177188 0.257448 0.500000 
719 1 0.187695 0.241083 0.500000 
720 1 0.197268 0.258271 0.500000 
721 1 0.207764 0.241892 0.500000 
722 1 0.217341 0.259108 0.500000 
723 1 0.227832 0.242734 0.500000 
724 1 0.237409 0.259971 0.500000 
725 1 0.247901 0.243594 0.500000 
726 1 0.257476 0.260863 0.500000 
727 1 0.267955 0.244479 0.500000 
728 1 0.277541 0.261773 0.500000 
729 1 0.287999 0.245372 0.500000 
730 1 0.297587 0.262697 0.500000 
731 1 0.308037 0.246275 0.500000 
732 1 0.317622 0.263625 0.500000 
733 1 0.328069 0.247201 0.500000 
734 1 0.337652 0.264585 0.500000 
735 1 0.348080 0.248137 0.500000 
736 1 0.357661 0.265550 0.500000 
737 1 0.368069 0.249060 0.500000 
738 1 0.377642 0.266512 0.500000 
739 1 0.388042 0.249999 0.500000 
740 1 0.397613 0.267478 0.500000 
741 1 0.407996 0.250916 0.500000 
742 1 0.417564 0.268413 0.500000 
743 1 0.427934 0.251817 0.500000 
744 1 0.437500 0.269325 0.500000 
745 1 0.447861 0.252690 0.500000 
746 1 0.457424 0.270212 0.500000 
747 1 0.467783 0.253530 0.500000 
748 1 0.477352 0.271042 0.500000 
749 1 0.487710 0.254325 0.500000 
750 1 0.497281 0.271822 0.500000 
751 1 0.507642 0.255071 0.500000 
752 1 0.517212 0.272549 0.500000 
753 1 0.527574 0.255767 0.500000 
754 1 0.537153 0.273226 0.500000 
755 1 0.547503 0.256417 0.500000 
756 1 0.557093 0.273852 0.500000 
757 1 0.567436 0.257017 0.500000 
758 1 0.577038 0.274414 0.500000 
759 1 0.587385 0.257569 0.500000 
760 1 0.596993 0.274945 0.500000 
761 1 0.607327 0.258072 0.500000 
762 1 0.616951 0.275418 0.500000 
763 1 0.627279 0.258534 0.500000 
764 1 0.636915 0.275861 0.500000 
765 1 0.647240 0.258965 0.500000 
766 1 0.656893 0.276260 0.500000 
767 1 0.667210 0.259353 0.500000 
768 1 0.676866 0.276633 0.500000 
769 1 0.687182 0.259717 0.500000 
770 1 0.696852 0.276966 0.500000 
771 1 0.707161 0.260040 0.500000 
772 1 0.716838 0.277270 0.500000 
773 1 0.727146 0.260336 0.500000 
774 1 0.736830 0.277549 0.500000 
775 1 0.747129 0.260605 0.500000 
776 1 0.756828 0.277797 0.500000 
777 1 0.767114 0.260844 0.500000 
778 1 0.776828 0.278011 0.500000 
779 1 0.787105 0.261067 0.500000 
780 1 0.796827 0.278226 0.500000 
781 1 0.807101 0.261283 0.500000 
782 1 0.816837 0.278419 0.500000 
783 1 0.827095 0.261470 0.500000 
784 1 0.836846 0.278595 0.500000 
785 1 0.847091 0.261645 0.500000 
786 1 0.856855 0.278756 0.500000 
787 1 0.867101 0.261815 0.500000 
788 1 0.876873 0.278914 0.500000 
789 1 0.887117 0.261972 0.500000 
790 1 0.896898 0.279056 0.500000 
791 1 0.907130 0.262119 0.500000 
792 1 0.916925 0.279188 0.500000 
793 1 0.927146 0.262254 0.500000 
794 1 0.936950 0.279312 0.500000 
795 1 0.947159 0.262387 0.500000 
796 1 0.956982 0.279417 0.500000 
797 1 0.967200 0.262468 0.500000 
798 1 0.977036 0.279488 0.500000 
799 1 0.987245 0.262544 0.500000 
800 1 0.997089 0.279555 0.500000 
801 1 0.006256 0.268068 0.500000 
802 1 0.015779 0.285121 0.500000 
803 1 0.026272 0.268696 0.500000 
804 1 0.035792 0.285753 0.500000 
805 1 0.046292 0.269335 0.500000 
806 1 0.055810 0.286400 0.500000 
807 1 0.066319 0.269991 0.500000 
808 1 0.075854 0.287097 0.500000 
809 1 0.086373 0.270723 0.500000 
810 1 0.095908 0.287837 0.500000 
811 1 0.106430 0.271461 0.500000 
812 1 0.115973 0.288576 0.500000 
813 1 0.126509 0.272215 0.500000 
814 1 0.136045 0.289350 0.500000 
815 1 0.146589 0.273007 0.500000 
816 1 0.156133 0.290146 0.500000 
817 1 0.166666 0.273796 0.500000 
818 1 0.176203 0.290961 0.500000 
819 1 0.186747 0.274624 0.500000 
820 1 0.196279 0.291803 0.500000 
821 1 0.206830 0.275468 0.500000 
822 1 0.216361 0.292669 0.500000 
823 1 0.226908 0.276335 0.500000 
824 1 0.236446 0.293570 0.500000 
825 1 0.246972 0.277226 0.500000 
826 1 0.256530 0.294486 0.500000 
827 1 0.267042 0.278140 0.500000 
828 1 0.276598 0.295436 0.500000 
829 1 0.287109 0.279084 0.500000 
830 1 0.296665 0.296407 0.500000 
831 1 0.307167 0.280036 0.500000 
832 1 0.316727 0.297395 0.500000 
833 1 0.327204 0.281001 0.500000 
834 1 0.336761 0.298412 0.500000 
835 1 0.347223 0.281999 0.500000 
836 1 0.356778 0.299446 0.500000 
837 1 0.367223 0.282997 0.500000 
838 1 0.376777 0.300483 0.500000 
839 1 0.387205 0.283996 0.500000 
840 1 0.396758 0.301508 0.500000 
841 1 0.407177 0.284982 0.500000 
842 1 0.416717 0.302523 0.500000 
843 1 0.427124 0.285938 0.500000 
844 1 0.436659 0.303498 0.500000 
845 1 0.447060 0.286868 0.500000 
846 1 0.456593 0.304431 0.500000 
847 1 0.466994 0.287748 0.500000 
848 1 0.476531 0.305298 0.500000 
849 1 0.486925 0.288570 0.500000 
850 1 0.496467 0.306104 0.500000 
851 1 0.506851 0.289329 0.500000 
852 1 0.516400 0.306830 0.500000 
853 1 0.526787 0.290027 0.500000 
854 1 0.536334 0.307503 0.500000 
855 1 0.546733 0.290679 0.500000 
856 1 0.556283 0.308118 0.500000 
857 1 0.566684 0.291270 0.500000 
858 1 0.576250 0.308677 0.500000 
859 1 0.586631 0.291808 0.500000 
860 1 0.596222 0.309184 0.500000 
861 1 0.606591 0.292307 0.500000 
862 1 0.616201 0.309655 0.500000 
863 1 0.626564 0.292760 0.500000 
864 1 0.636195 0.310074 0.500000 
865 1 0.646549 0.293165 0.500000 
866 1 0.656190 0.310461 0.500000 
867 1 0.666534 0.293547 0.500000 
868 1 0.676194 0.310808 0.500000 
869 1 0.686528 0.293889 0.500000 
870 1 0.696201 0.311136 0.500000 
871 1 0.706523 0.294206 0.500000 
872 1 0.716213 0.311432 0.500000 
873 1 0.726524 0.294489 0.500000 
874 1 0.736228 0.311695 0.500000 
875 1 0.746533 0.294744 0.500000 
876 1 0.756259 0.311917 0.500000 
877 1 0.766548 0.294967 0.500000 
878 1 0.776287 0.312132 0.500000 
879 1 0.786553 0.295174 0.500000 
880 1 0.796314 0.312316 0.500000 
881 1 0.806571 0.295366 0.500000 