ITEM: TIMESTEP
600
ITEM: NUMBER OF ATOMS
2850
ITEM: BOX BOUNDS ss ss pp
-28.0536 28.3253 
-28.9988 28.9984 
-0.5 0.5 
ITEM: ATOMS id type xs ys zs
1 1 0.012661 0.000000 0.500000 
2 1 0.022340 0.017073 0.500000 
3 1 0.032688 0.000597 0.500000 
4 1 0.042369 0.017677 0.500000 
5 1 0.052715 0.001202 0.500000 
6 1 0.062397 0.018289 0.500000 
7 1 0.072742 0.001814 0.500000 
8 1 0.082426 0.018911 0.500000 
9 1 0.092767 0.002433 0.500000 
10 1 0.102455 0.019539 0.500000 
11 1 0.112794 0.003060 0.500000 
12 1 0.122484 0.020177 0.500000 
13 1 0.132817 0.003697 0.500000 
14 1 0.142511 0.020822 0.500000 
15 1 0.152841 0.004338 0.500000 
16 1 0.162536 0.021475 0.500000 
17 1 0.172861 0.004988 0.500000 
18 1 0.182559 0.022136 0.500000 
19 1 0.192879 0.005643 0.500000 
20 1 0.202579 0.022803 0.500000 
21 1 0.212895 0.006305 0.500000 
22 1 0.222596 0.023475 0.500000 
23 1 0.232906 0.006973 0.500000 
24 1 0.242610 0.024155 0.500000 
25 1 0.252912 0.007645 0.500000 
26 1 0.262618 0.024839 0.500000 
27 1 0.272914 0.008319 0.500000 
28 1 0.282622 0.025527 0.500000 
29 1 0.292911 0.008997 0.500000 
30 1 0.302619 0.026217 0.500000 
31 1 0.312901 0.009676 0.500000 
32 1 0.322610 0.026908 0.500000 
33 1 0.332885 0.010356 0.500000 
34 1 0.342593 0.027600 0.500000 
35 1 0.352861 0.011033 0.500000 
36 1 0.362570 0.028289 0.500000 
37 1 0.372830 0.011707 0.500000 
38 1 0.382537 0.028974 0.500000 
39 1 0.392791 0.012376 0.500000 
40 1 0.402497 0.029655 0.500000 
41 1 0.412744 0.013039 0.500000 
42 1 0.422448 0.030326 0.500000 
43 1 0.432688 0.013694 0.500000 
44 1 0.442390 0.030989 0.500000 
45 1 0.452624 0.014337 0.500000 
46 1 0.462324 0.031639 0.500000 
47 1 0.472553 0.014968 0.500000 
48 1 0.482250 0.032276 0.500000 
49 1 0.492474 0.015584 0.500000 
50 1 0.502167 0.032896 0.500000 
51 1 0.512388 0.016184 0.500000 
52 1 0.522078 0.033498 0.500000 
53 1 0.532295 0.016766 0.500000 
54 1 0.541983 0.034081 0.500000 
55 1 0.552198 0.017330 0.500000 
56 1 0.561882 0.034643 0.500000 
57 1 0.572095 0.017873 0.500000 
58 1 0.581777 0.035184 0.500000 
59 1 0.591989 0.018396 0.500000 
60 1 0.601668 0.035702 0.500000 
61 1 0.611880 0.018896 0.500000 
62 1 0.621558 0.036195 0.500000 
63 1 0.631769 0.019373 0.500000 
64 1 0.641446 0.036666 0.500000 
65 1 0.651657 0.019829 0.500000 
66 1 0.661334 0.037110 0.500000 
67 1 0.671546 0.020261 0.500000 
68 1 0.681223 0.037533 0.500000 
69 1 0.691436 0.020670 0.500000 
70 1 0.701115 0.037931 0.500000 
71 1 0.711328 0.021058 0.500000 
72 1 0.721007 0.038307 0.500000 
73 1 0.731222 0.021423 0.500000 
74 1 0.740905 0.038660 0.500000 
75 1 0.751120 0.021768 0.500000 
76 1 0.760806 0.038993 0.500000 
77 1 0.771021 0.022094 0.500000 
78 1 0.780711 0.039305 0.500000 
79 1 0.790927 0.022399 0.500000 
80 1 0.800620 0.039597 0.500000 
81 1 0.810837 0.022687 0.500000 
82 1 0.820536 0.039873 0.500000 
83 1 0.830751 0.022958 0.500000 
84 1 0.840456 0.040130 0.500000 
85 1 0.850671 0.023211 0.500000 
86 1 0.860382 0.040369 0.500000 
87 1 0.870595 0.023449 0.500000 
88 1 0.880312 0.040595 0.500000 
89 1 0.890525 0.023674 0.500000 
90 1 0.900248 0.040807 0.500000 
91 1 0.910459 0.023884 0.500000 
92 1 0.920188 0.041005 0.500000 
93 1 0.930398 0.024080 0.500000 
94 1 0.940134 0.041192 0.500000 
95 1 0.950341 0.024267 0.500000 
96 1 0.960084 0.041368 0.500000 
97 1 0.970290 0.024443 0.500000 
98 1 0.980040 0.041531 0.500000 
99 1 0.990243 0.024606 0.500000 
100 1 1.000000 0.041686 0.500000 
101 1 0.011983 0.033545 0.500000 
102 1 0.021650 0.050615 0.500000 
103 1 0.032014 0.034148 0.500000 
104 1 0.041680 0.051227 0.500000 
105 1 0.052044 0.034760 0.500000 
106 1 0.061715 0.051847 0.500000 
107 1 0.072075 0.035381 0.500000 
108 1 0.081722 0.052474 0.500000 
109 1 0.092107 0.036012 0.500000 
110 1 0.101753 0.053110 0.500000 
111 1 0.112138 0.036650 0.500000 
112 1 0.121794 0.053766 0.500000 
113 1 0.132168 0.037297 0.500000 
114 1 0.141843 0.054417 0.500000 
115 1 0.152197 0.037952 0.500000 
116 1 0.161887 0.055078 0.500000 
117 1 0.172226 0.038617 0.500000 
118 1 0.181932 0.055740 0.500000 
119 1 0.192251 0.039288 0.500000 
120 1 0.201980 0.056423 0.500000 
121 1 0.212274 0.039967 0.500000 
122 1 0.222015 0.057140 0.500000 
123 1 0.232293 0.040654 0.500000 
124 1 0.242030 0.057868 0.500000 
125 1 0.252309 0.041345 0.500000 
126 1 0.262034 0.058591 0.500000 
127 1 0.272318 0.042042 0.500000 
128 1 0.282038 0.059315 0.500000 
129 1 0.292324 0.042743 0.500000 
130 1 0.302034 0.060051 0.500000 
131 1 0.312323 0.043447 0.500000 
132 1 0.322003 0.060791 0.500000 
133 1 0.332314 0.044150 0.500000 
134 1 0.341948 0.061520 0.500000 
135 1 0.352297 0.044856 0.500000 
136 1 0.361899 0.062227 0.500000 
137 1 0.372273 0.045557 0.500000 
138 1 0.381869 0.062911 0.500000 
139 1 0.392240 0.046254 0.500000 
140 1 0.401837 0.063590 0.500000 
141 1 0.412198 0.046944 0.500000 
142 1 0.421779 0.064288 0.500000 
143 1 0.432147 0.047626 0.500000 
144 1 0.441696 0.064995 0.500000 
145 1 0.452087 0.048297 0.500000 
146 1 0.461612 0.065675 0.500000 
147 1 0.472018 0.048954 0.500000 
148 1 0.481531 0.066324 0.500000 
149 1 0.491940 0.049595 0.500000 
150 1 0.501441 0.066979 0.500000 
151 1 0.511855 0.050220 0.500000 
152 1 0.521343 0.067631 0.500000 
153 1 0.531762 0.050823 0.500000 
154 1 0.541242 0.068236 0.500000 
155 1 0.551663 0.051406 0.500000 
156 1 0.561135 0.068803 0.500000 
157 1 0.571560 0.051966 0.500000 
158 1 0.581024 0.069352 0.500000 
159 1 0.591452 0.052503 0.500000 
160 1 0.600921 0.069868 0.500000 
161 1 0.611341 0.053013 0.500000 
162 1 0.620828 0.070352 0.500000 
163 1 0.631230 0.053499 0.500000 
164 1 0.640742 0.070823 0.500000 
165 1 0.651117 0.053960 0.500000 
166 1 0.660661 0.071276 0.500000 
167 1 0.671006 0.054396 0.500000 
168 1 0.680576 0.071706 0.500000 
169 1 0.690897 0.054806 0.500000 
170 1 0.700478 0.072119 0.500000 
171 1 0.710789 0.055192 0.500000 
172 1 0.720367 0.072502 0.500000 
173 1 0.730685 0.055554 0.500000 
174 1 0.740255 0.072844 0.500000 
175 1 0.750586 0.055894 0.500000 
176 1 0.760162 0.073139 0.500000 
177 1 0.770490 0.056213 0.500000 
178 1 0.780103 0.073400 0.500000 
179 1 0.790400 0.056511 0.500000 
180 1 0.800082 0.073654 0.500000 
181 1 0.810316 0.056789 0.500000 
182 1 0.820073 0.073929 0.500000 
183 1 0.830238 0.057049 0.500000 
184 1 0.840029 0.074210 0.500000 
185 1 0.850164 0.057294 0.500000 
186 1 0.859939 0.074450 0.500000 
187 1 0.870095 0.057522 0.500000 
188 1 0.879840 0.074647 0.500000 
189 1 0.890032 0.057734 0.500000 
190 1 0.899763 0.074825 0.500000 
191 1 0.909975 0.057934 0.500000 
192 1 0.919718 0.075008 0.500000 
193 1 0.929922 0.058120 0.500000 
194 1 0.939674 0.075207 0.500000 
195 1 0.949875 0.058294 0.500000 
196 1 0.959621 0.075390 0.500000 
197 1 0.969833 0.058458 0.500000 
198 1 0.979588 0.075542 0.500000 
199 1 0.989796 0.058613 0.500000 
200 1 0.999557 0.075685 0.500000 
201 1 0.011275 0.067077 0.500000 
202 1 0.020924 0.084144 0.500000 
203 1 0.031308 0.067688 0.500000 
204 1 0.040959 0.084763 0.500000 
205 1 0.051342 0.068307 0.500000 
206 1 0.060994 0.085390 0.500000 
207 1 0.071376 0.068936 0.500000 
208 1 0.081068 0.086024 0.500000 
209 1 0.091410 0.069560 0.500000 
210 1 0.101118 0.086649 0.500000 
211 1 0.111444 0.070204 0.500000 
212 1 0.121178 0.087289 0.500000 
213 1 0.131489 0.070857 0.500000 
214 1 0.141222 0.087978 0.500000 
215 1 0.151533 0.071535 0.500000 
216 1 0.161259 0.088688 0.500000 
217 1 0.171584 0.072216 0.500000 
218 1 0.181292 0.089392 0.500000 
219 1 0.191636 0.072895 0.500000 
220 1 0.201320 0.090094 0.500000 
221 1 0.211685 0.073607 0.500000 
222 1 0.221351 0.090822 0.500000 
223 1 0.231717 0.074348 0.500000 
224 1 0.241362 0.091577 0.500000 
225 1 0.251723 0.075092 0.500000 
226 1 0.261339 0.092347 0.500000 
227 1 0.271706 0.075840 0.500000 
228 1 0.281296 0.093130 0.500000 
229 1 0.291674 0.076607 0.500000 
230 1 0.301259 0.093925 0.500000 
231 1 0.311636 0.077389 0.500000 
232 1 0.321230 0.094722 0.500000 
233 1 0.331588 0.078160 0.500000 
234 1 0.341206 0.095489 0.500000 
235 1 0.351540 0.078889 0.500000 
236 1 0.361191 0.096207 0.500000 
237 1 0.371513 0.079574 0.500000 
238 1 0.381171 0.096915 0.500000 
239 1 0.391495 0.080255 0.500000 
240 1 0.401130 0.097665 0.500000 
241 1 0.411446 0.080970 0.500000 
242 1 0.421077 0.098422 0.500000 
243 1 0.431364 0.081702 0.500000 
244 1 0.441023 0.099144 0.500000 
245 1 0.451288 0.082404 0.500000 
246 1 0.460946 0.099853 0.500000 
247 1 0.471214 0.083078 0.500000 
248 1 0.480839 0.100558 0.500000 
249 1 0.491110 0.083748 0.500000 
250 1 0.500732 0.101217 0.500000 
251 1 0.510994 0.084402 0.500000 
252 1 0.520625 0.101839 0.500000 
253 1 0.530891 0.085023 0.500000 
254 1 0.540499 0.102456 0.500000 
255 1 0.550774 0.085618 0.500000 
256 1 0.560365 0.103047 0.500000 
257 1 0.570640 0.086191 0.500000 
258 1 0.580240 0.103592 0.500000 
259 1 0.590524 0.086730 0.500000 
260 1 0.600123 0.104121 0.500000 
261 1 0.610425 0.087241 0.500000 
262 1 0.620025 0.104628 0.500000 
263 1 0.630335 0.087721 0.500000 
264 1 0.639940 0.105084 0.500000 
265 1 0.650263 0.088166 0.500000 
266 1 0.659865 0.105500 0.500000 
267 1 0.670207 0.088592 0.500000 
268 1 0.679816 0.105897 0.500000 
269 1 0.690154 0.089013 0.500000 
270 1 0.699791 0.106293 0.500000 
271 1 0.710092 0.089419 0.500000 
272 1 0.719767 0.106681 0.500000 
273 1 0.730013 0.089789 0.500000 
274 1 0.739714 0.107023 0.500000 
275 1 0.749923 0.090092 0.500000 
276 1 0.759611 0.107299 0.500000 
277 1 0.769835 0.090328 0.500000 
278 1 0.779481 0.107508 0.500000 
279 1 0.789766 0.090539 0.500000 
280 1 0.799380 0.107700 0.500000 
281 1 0.809730 0.090786 0.500000 
282 1 0.819339 0.107958 0.500000 
283 1 0.829717 0.091094 0.500000 
284 1 0.839353 0.108264 0.500000 
285 1 0.849695 0.091385 0.500000 
286 1 0.859376 0.108505 0.500000 
287 1 0.869652 0.091583 0.500000 
288 1 0.879363 0.108655 0.500000 
289 1 0.889598 0.091730 0.500000 
290 1 0.899313 0.108791 0.500000 
291 1 0.909540 0.091889 0.500000 
292 1 0.919240 0.108990 0.500000 
293 1 0.929474 0.092103 0.500000 
294 1 0.939183 0.109234 0.500000 
295 1 0.949407 0.092323 0.500000 
296 1 0.959160 0.109410 0.500000 
297 1 0.969375 0.092475 0.500000 
298 1 0.979136 0.109550 0.500000 
299 1 0.989349 0.092617 0.500000 
300 1 0.999117 0.109681 0.500000 
301 1 0.010532 0.100598 0.500000 
302 1 0.020165 0.117663 0.500000 
303 1 0.030566 0.101214 0.500000 
304 1 0.040201 0.118287 0.500000 
305 1 0.050602 0.101839 0.500000 
306 1 0.060239 0.118920 0.500000 
307 1 0.070640 0.102476 0.500000 
308 1 0.080329 0.119573 0.500000 
309 1 0.090741 0.103122 0.500000 
310 1 0.100446 0.120218 0.500000 
311 1 0.110832 0.103739 0.500000 
312 1 0.120516 0.120891 0.500000 
313 1 0.130896 0.104426 0.500000 
314 1 0.140566 0.121605 0.500000 
315 1 0.150930 0.105141 0.500000 
316 1 0.160604 0.122318 0.500000 
317 1 0.170956 0.105865 0.500000 
318 1 0.180630 0.123053 0.500000 
319 1 0.190977 0.106586 0.500000 
320 1 0.200635 0.123802 0.500000 
321 1 0.210994 0.107315 0.500000 
322 1 0.220640 0.124564 0.500000 
323 1 0.231006 0.108080 0.500000 
324 1 0.240668 0.125346 0.500000 
325 1 0.250996 0.108859 0.500000 
326 1 0.260684 0.126138 0.500000 
327 1 0.270971 0.109643 0.500000 
328 1 0.280656 0.126956 0.500000 
329 1 0.290934 0.110439 0.500000 
330 1 0.300618 0.127775 0.500000 
331 1 0.310900 0.111242 0.500000 
332 1 0.320617 0.128557 0.500000 
333 1 0.330888 0.112020 0.500000 
334 1 0.340634 0.129324 0.500000 
335 1 0.350895 0.112772 0.500000 
336 1 0.360622 0.130122 0.500000 
337 1 0.370884 0.113541 0.500000 
338 1 0.380596 0.130939 0.500000 
339 1 0.390844 0.114333 0.500000 
340 1 0.400575 0.131725 0.500000 
341 1 0.410814 0.115105 0.500000 
342 1 0.420530 0.132505 0.500000 
343 1 0.430779 0.115855 0.500000 
344 1 0.440451 0.133302 0.500000 
345 1 0.450699 0.116611 0.500000 
346 1 0.460369 0.134071 0.500000 
347 1 0.470597 0.117345 0.500000 
348 1 0.480288 0.134800 0.500000 
349 1 0.490509 0.118027 0.500000 
350 1 0.500181 0.135523 0.500000 
351 1 0.510407 0.118696 0.500000 
352 1 0.520061 0.136217 0.500000 
353 1 0.530277 0.119351 0.500000 
354 1 0.539939 0.136843 0.500000 
355 1 0.550149 0.119950 0.500000 
356 1 0.559806 0.137433 0.500000 
357 1 0.570028 0.120505 0.500000 
358 1 0.579683 0.137984 0.500000 
359 1 0.589904 0.121031 0.500000 
360 1 0.599583 0.138461 0.500000 
361 1 0.609801 0.121515 0.500000 
362 1 0.619486 0.138895 0.500000 
363 1 0.629717 0.121976 0.500000 
364 1 0.639402 0.139311 0.500000 
365 1 0.649628 0.122417 0.500000 
366 1 0.659327 0.139713 0.500000 
367 1 0.669538 0.122807 0.500000 
368 1 0.679227 0.140095 0.500000 
369 1 0.689464 0.123175 0.500000 
370 1 0.699121 0.140435 0.500000 
371 1 0.709423 0.123542 0.500000 
372 1 0.719048 0.140762 0.500000 
373 1 0.729406 0.123898 0.500000 
374 1 0.739015 0.141111 0.500000 
375 1 0.749369 0.124235 0.500000 
376 1 0.759002 0.141454 0.500000 
377 1 0.769287 0.124511 0.500000 
378 1 0.778965 0.141725 0.500000 
379 1 0.789177 0.124705 0.500000 
380 1 0.798886 0.141909 0.500000 
381 1 0.809078 0.124889 0.500000 
382 1 0.818785 0.142086 0.500000 
383 1 0.829024 0.125134 0.500000 
384 1 0.838719 0.142286 0.500000 
385 1 0.849024 0.125392 0.500000 
386 1 0.858706 0.142495 0.500000 
387 1 0.869033 0.125589 0.500000 
388 1 0.878713 0.142670 0.500000 
389 1 0.889018 0.125724 0.500000 
390 1 0.898711 0.142823 0.500000 
391 1 0.908982 0.125891 0.500000 
392 1 0.918704 0.143015 0.500000 
393 1 0.928949 0.126117 0.500000 
394 1 0.938712 0.143227 0.500000 
395 1 0.948940 0.126349 0.500000 
396 1 0.958701 0.143428 0.500000 
397 1 0.968919 0.126487 0.500000 
398 1 0.978689 0.143555 0.500000 
399 1 0.988905 0.126616 0.500000 
400 1 0.998682 0.143674 0.500000 
401 1 0.009754 0.134110 0.500000 
402 1 0.019367 0.151171 0.500000 
403 1 0.029790 0.134729 0.500000 
404 1 0.039403 0.151799 0.500000 
405 1 0.049825 0.135360 0.500000 
406 1 0.059442 0.152437 0.500000 
407 1 0.069865 0.136003 0.500000 
408 1 0.079552 0.153103 0.500000 
409 1 0.089992 0.136663 0.500000 
410 1 0.099633 0.153797 0.500000 
411 1 0.110078 0.137361 0.500000 
412 1 0.119700 0.154521 0.500000 
413 1 0.130141 0.138068 0.500000 
414 1 0.139760 0.155249 0.500000 
415 1 0.150208 0.138789 0.500000 
416 1 0.159810 0.156000 0.500000 
417 1 0.170246 0.139523 0.500000 
418 1 0.179855 0.156736 0.500000 
419 1 0.190263 0.140276 0.500000 
420 1 0.199908 0.157471 0.500000 
421 1 0.210282 0.141021 0.500000 
422 1 0.219942 0.158220 0.500000 
423 1 0.230324 0.141782 0.500000 
424 1 0.239961 0.159039 0.500000 
425 1 0.250359 0.142595 0.500000 
426 1 0.259978 0.159904 0.500000 
427 1 0.270350 0.143449 0.500000 
428 1 0.280006 0.160759 0.500000 
429 1 0.290330 0.144289 0.500000 
430 1 0.300029 0.161578 0.500000 
431 1 0.310340 0.145092 0.500000 
432 1 0.320046 0.162394 0.500000 
433 1 0.330359 0.145881 0.500000 
434 1 0.340058 0.163219 0.500000 
435 1 0.350360 0.146690 0.500000 
436 1 0.360058 0.164057 0.500000 
437 1 0.370347 0.147502 0.500000 
438 1 0.380039 0.164907 0.500000 
439 1 0.390323 0.148312 0.500000 
440 1 0.400010 0.165773 0.500000 
441 1 0.410281 0.149139 0.500000 
442 1 0.419975 0.166654 0.500000 
443 1 0.430223 0.149971 0.500000 
444 1 0.439922 0.167509 0.500000 
445 1 0.450157 0.150781 0.500000 
446 1 0.459848 0.168322 0.500000 
447 1 0.470071 0.151567 0.500000 
448 1 0.479752 0.169108 0.500000 
449 1 0.489962 0.152331 0.500000 
450 1 0.499638 0.169850 0.500000 
451 1 0.509848 0.153039 0.500000 
452 1 0.519514 0.170531 0.500000 
453 1 0.529730 0.153695 0.500000 
454 1 0.539389 0.171168 0.500000 
455 1 0.549595 0.154317 0.500000 
456 1 0.559276 0.171752 0.500000 
457 1 0.569466 0.154879 0.500000 
458 1 0.579159 0.172284 0.500000 
459 1 0.589361 0.155395 0.500000 
460 1 0.599041 0.172783 0.500000 
461 1 0.609256 0.155872 0.500000 
462 1 0.618940 0.173223 0.500000 
463 1 0.629154 0.156263 0.500000 
464 1 0.638829 0.173599 0.500000 
465 1 0.649073 0.156620 0.500000 
466 1 0.658732 0.173936 0.500000 
467 1 0.669007 0.157005 0.500000 
468 1 0.678679 0.174291 0.500000 
469 1 0.688928 0.157371 0.500000 
470 1 0.698621 0.174671 0.500000 
471 1 0.708811 0.157698 0.500000 
472 1 0.718531 0.175000 0.500000 
473 1 0.728702 0.158011 0.500000 
474 1 0.738423 0.175301 0.500000 
475 1 0.748645 0.158351 0.500000 
476 1 0.758351 0.175601 0.500000 
477 1 0.768634 0.158682 0.500000 
478 1 0.778327 0.175887 0.500000 
479 1 0.788619 0.158930 0.500000 
480 1 0.798292 0.176131 0.500000 
481 1 0.808553 0.159111 0.500000 
482 1 0.818227 0.176288 0.500000 
483 1 0.828471 0.159250 0.500000 
484 1 0.838167 0.176382 0.500000 
485 1 0.848426 0.159401 0.500000 
486 1 0.858151 0.176505 0.500000 
487 1 0.868427 0.159588 0.500000 
488 1 0.878172 0.176696 0.500000 
489 1 0.888445 0.159777 0.500000 
490 1 0.898199 0.176907 0.500000 
491 1 0.908455 0.159955 0.500000 
492 1 0.918231 0.177072 0.500000 
493 1 0.928475 0.160130 0.500000 
494 1 0.938245 0.177268 0.500000 
495 1 0.948477 0.160370 0.500000 
496 1 0.958249 0.177440 0.500000 
497 1 0.968470 0.160496 0.500000 
498 1 0.978251 0.177553 0.500000 
499 1 0.988467 0.160611 0.500000 
500 1 0.998258 0.177659 0.500000 
501 1 0.008938 0.167610 0.500000 
502 1 0.018532 0.184668 0.500000 
503 1 0.028972 0.168234 0.500000 
504 1 0.038566 0.185299 0.500000 
505 1 0.049008 0.168868 0.500000 
506 1 0.058602 0.185942 0.500000 
507 1 0.069047 0.169517 0.500000 
508 1 0.078687 0.186620 0.500000 
509 1 0.089171 0.170221 0.500000 
510 1 0.098787 0.187373 0.500000 
511 1 0.109254 0.170953 0.500000 
512 1 0.118878 0.188111 0.500000 
513 1 0.129317 0.171687 0.500000 
514 1 0.138954 0.188832 0.500000 
515 1 0.149377 0.172434 0.500000 
516 1 0.159031 0.189582 0.500000 
517 1 0.169452 0.173178 0.500000 
518 1 0.179091 0.190362 0.500000 
519 1 0.189513 0.173918 0.500000 
520 1 0.199127 0.191165 0.500000 
521 1 0.209537 0.174697 0.500000 
522 1 0.219145 0.191985 0.500000 
523 1 0.229534 0.175504 0.500000 
524 1 0.239150 0.192814 0.500000 
525 1 0.249558 0.176353 0.500000 
526 1 0.259176 0.193661 0.500000 
527 1 0.269609 0.177201 0.500000 
528 1 0.279238 0.194495 0.500000 
529 1 0.289660 0.178032 0.500000 
530 1 0.299293 0.195332 0.500000 
531 1 0.309692 0.178858 0.500000 
532 1 0.319317 0.196219 0.500000 
533 1 0.329707 0.179715 0.500000 
534 1 0.339332 0.197122 0.500000 
535 1 0.349715 0.180601 0.500000 
536 1 0.359359 0.198018 0.500000 
537 1 0.369720 0.181483 0.500000 
538 1 0.379347 0.198930 0.500000 
539 1 0.389708 0.182381 0.500000 
540 1 0.399296 0.199862 0.500000 
541 1 0.409665 0.183295 0.500000 
542 1 0.419261 0.200758 0.500000 
543 1 0.429618 0.184178 0.500000 
544 1 0.439226 0.201647 0.500000 
545 1 0.449573 0.185016 0.500000 
546 1 0.459143 0.202560 0.500000 
547 1 0.469489 0.185849 0.500000 
548 1 0.479044 0.203414 0.500000 
549 1 0.489378 0.186642 0.500000 
550 1 0.498942 0.204182 0.500000 
551 1 0.509266 0.187365 0.500000 
552 1 0.518824 0.204912 0.500000 
553 1 0.529146 0.188034 0.500000 
554 1 0.538707 0.205563 0.500000 
555 1 0.549029 0.188643 0.500000 
556 1 0.558595 0.206139 0.500000 
557 1 0.568925 0.189211 0.500000 
558 1 0.578503 0.206671 0.500000 
559 1 0.588817 0.189710 0.500000 
560 1 0.598414 0.207136 0.500000 
561 1 0.608706 0.190142 0.500000 
562 1 0.618310 0.207543 0.500000 
563 1 0.628594 0.190564 0.500000 
564 1 0.638222 0.207910 0.500000 
565 1 0.648489 0.190927 0.500000 
566 1 0.658124 0.208266 0.500000 
567 1 0.668390 0.191256 0.500000 
568 1 0.678031 0.208587 0.500000 
569 1 0.688325 0.191619 0.500000 
570 1 0.697978 0.208928 0.500000 
571 1 0.708295 0.191984 0.500000 
572 1 0.717957 0.209305 0.500000 
573 1 0.728237 0.192318 0.500000 
574 1 0.737922 0.209608 0.500000 
575 1 0.748161 0.192577 0.500000 
576 1 0.757857 0.209821 0.500000 
577 1 0.768095 0.192819 0.500000 
578 1 0.777805 0.210027 0.500000 
579 1 0.788051 0.193091 0.500000 
580 1 0.797765 0.210312 0.500000 
581 1 0.808002 0.193336 0.500000 
582 1 0.817733 0.210532 0.500000 
583 1 0.827947 0.193456 0.500000 
584 1 0.837691 0.210614 0.500000 
585 1 0.847905 0.193507 0.500000 
586 1 0.857658 0.210629 0.500000 
587 1 0.867903 0.193611 0.500000 
588 1 0.877654 0.210727 0.500000 
589 1 0.887926 0.193813 0.500000 
590 1 0.897687 0.210914 0.500000 
591 1 0.907962 0.194017 0.500000 
592 1 0.917716 0.211127 0.500000 
593 1 0.927987 0.194199 0.500000 
594 1 0.937743 0.211323 0.500000 
595 1 0.948021 0.194385 0.500000 
596 1 0.957807 0.211443 0.500000 
597 1 0.968031 0.194496 0.500000 
598 1 0.977825 0.211543 0.500000 
599 1 0.988043 0.194599 0.500000 
600 1 0.997847 0.211634 0.500000 
601 1 0.008083 0.201103 0.500000 
602 1 0.017654 0.218157 0.500000 
603 1 0.028113 0.201727 0.500000 
604 1 0.037684 0.218790 0.500000 
605 1 0.048147 0.202367 0.500000 
606 1 0.057718 0.219436 0.500000 
607 1 0.068185 0.203017 0.500000 
608 1 0.077799 0.220162 0.500000 
609 1 0.088299 0.203779 0.500000 
610 1 0.097882 0.220914 0.500000 
611 1 0.108396 0.204517 0.500000 
612 1 0.117979 0.221635 0.500000 
613 1 0.128493 0.205239 0.500000 
614 1 0.138080 0.222386 0.500000 
615 1 0.148560 0.205969 0.500000 
616 1 0.158156 0.223138 0.500000 
617 1 0.168630 0.206767 0.500000 
618 1 0.178234 0.223965 0.500000 
619 1 0.188696 0.207582 0.500000 
620 1 0.198277 0.224818 0.500000 
621 1 0.208748 0.208425 0.500000 
622 1 0.218306 0.225716 0.500000 
623 1 0.228751 0.209277 0.500000 
624 1 0.238334 0.226578 0.500000 
625 1 0.248756 0.210131 0.500000 
626 1 0.258389 0.227431 0.500000 
627 1 0.268808 0.210971 0.500000 
628 1 0.278453 0.228315 0.500000 
629 1 0.288879 0.211838 0.500000 
630 1 0.298504 0.229230 0.500000 
631 1 0.308917 0.212734 0.500000 
632 1 0.318533 0.230142 0.500000 
633 1 0.328941 0.213640 0.500000 
634 1 0.338530 0.231068 0.500000 
635 1 0.348957 0.214537 0.500000 
636 1 0.358514 0.232022 0.500000 
637 1 0.368938 0.215466 0.500000 
638 1 0.378514 0.232970 0.500000 
639 1 0.388905 0.216405 0.500000 
640 1 0.398500 0.233928 0.500000 
641 1 0.408884 0.217327 0.500000 
642 1 0.418424 0.234954 0.500000 
643 1 0.428831 0.218289 0.500000 
644 1 0.438325 0.235982 0.500000 
645 1 0.448740 0.219274 0.500000 
646 1 0.458242 0.236909 0.500000 
647 1 0.468655 0.220165 0.500000 
648 1 0.478133 0.237785 0.500000 
649 1 0.488556 0.220986 0.500000 
650 1 0.497994 0.238615 0.500000 
651 1 0.508421 0.221763 0.500000 
652 1 0.517865 0.239339 0.500000 
653 1 0.528300 0.222446 0.500000 
654 1 0.537739 0.240007 0.500000 
655 1 0.548194 0.223078 0.500000 
656 1 0.557639 0.240610 0.500000 
657 1 0.568091 0.223632 0.500000 
658 1 0.577543 0.241129 0.500000 
659 1 0.588002 0.224126 0.500000 
660 1 0.597447 0.241581 0.500000 
661 1 0.607927 0.224572 0.500000 
662 1 0.617379 0.241963 0.500000 
663 1 0.627867 0.224937 0.500000 
664 1 0.637332 0.242319 0.500000 
665 1 0.647800 0.225293 0.500000 
666 1 0.657317 0.242642 0.500000 
667 1 0.667727 0.225597 0.500000 
668 1 0.677269 0.242935 0.500000 
669 1 0.687653 0.225880 0.500000 
670 1 0.697224 0.243161 0.500000 
671 1 0.707631 0.226214 0.500000 
672 1 0.717232 0.243469 0.500000 
673 1 0.727650 0.226591 0.500000 
674 1 0.737303 0.243842 0.500000 
675 1 0.747631 0.226891 0.500000 
676 1 0.757343 0.244141 0.500000 
677 1 0.767567 0.227066 0.500000 
678 1 0.777300 0.244344 0.500000 
679 1 0.787505 0.227273 0.500000 
680 1 0.797250 0.244509 0.500000 
681 1 0.807489 0.227513 0.500000 
682 1 0.817249 0.244687 0.500000 
683 1 0.827472 0.227698 0.500000 
684 1 0.837244 0.244818 0.500000 
685 1 0.847432 0.227744 0.500000 
686 1 0.857198 0.244859 0.500000 
687 1 0.867395 0.227753 0.500000 
688 1 0.877166 0.244861 0.500000 
689 1 0.887408 0.227831 0.500000 
690 1 0.897196 0.244931 0.500000 
691 1 0.907453 0.228013 0.500000 
692 1 0.917249 0.245123 0.500000 
693 1 0.927496 0.228237 0.500000 
694 1 0.937312 0.245308 0.500000 
695 1 0.947580 0.228392 0.500000 
696 1 0.957383 0.245436 0.500000 
697 1 0.967605 0.228489 0.500000 
698 1 0.977417 0.245522 0.500000 
699 1 0.987634 0.228577 0.500000 
700 1 0.997455 0.245600 0.500000 
701 1 0.007189 0.234587 0.500000 
702 1 0.016737 0.251640 0.500000 
703 1 0.027214 0.235215 0.500000 
704 1 0.036760 0.252274 0.500000 
705 1 0.047243 0.235854 0.500000 
706 1 0.056787 0.252921 0.500000 
707 1 0.067275 0.236508 0.500000 
708 1 0.076888 0.253610 0.500000 
709 1 0.087372 0.237262 0.500000 
710 1 0.096979 0.254376 0.500000 
711 1 0.107483 0.238024 0.500000 
712 1 0.117056 0.255157 0.500000 
713 1 0.127577 0.238780 0.500000 
714 1 0.137120 0.255919 0.500000 
715 1 0.147662 0.239533 0.500000 
716 1 0.157169 0.256710 0.500000 
717 1 0.167714 0.240328 0.500000 
718 1 0.177215 0.257588 0.500000 
719 1 0.187746 0.241214 0.500000 
720 1 0.197275 0.258482 0.500000 
721 1 0.207790 0.242109 0.500000 
722 1 0.217378 0.259368 0.500000 
723 1 0.227872 0.242995 0.500000 
724 1 0.237477 0.260251 0.500000 
725 1 0.247948 0.243855 0.500000 
726 1 0.257545 0.261156 0.500000 
727 1 0.268003 0.244748 0.500000 
728 1 0.277592 0.262097 0.500000 
729 1 0.288056 0.245680 0.500000 
730 1 0.297631 0.263082 0.500000 
731 1 0.308091 0.246619 0.500000 
732 1 0.317654 0.264065 0.500000 
733 1 0.328093 0.247586 0.500000 
734 1 0.337689 0.265047 0.500000 
735 1 0.348093 0.248558 0.500000 
736 1 0.357726 0.266034 0.500000 
737 1 0.368117 0.249523 0.500000 
738 1 0.377709 0.267082 0.500000 
739 1 0.388106 0.250524 0.500000 
740 1 0.397617 0.268203 0.500000 
741 1 0.408017 0.251596 0.500000 
742 1 0.417516 0.269300 0.500000 
743 1 0.427909 0.252657 0.500000 
744 1 0.437432 0.270319 0.500000 
745 1 0.447829 0.253628 0.500000 
746 1 0.457323 0.271335 0.500000 
747 1 0.467725 0.254572 0.500000 
748 1 0.477190 0.272279 0.500000 
749 1 0.487587 0.255464 0.500000 
750 1 0.497057 0.273093 0.500000 
751 1 0.507456 0.256245 0.500000 
752 1 0.516929 0.273844 0.500000 
753 1 0.527325 0.256964 0.500000 
754 1 0.536833 0.274506 0.500000 
755 1 0.547220 0.257571 0.500000 
756 1 0.556735 0.275106 0.500000 
757 1 0.567122 0.258130 0.500000 
758 1 0.576654 0.275611 0.500000 
759 1 0.587029 0.258602 0.500000 
760 1 0.596571 0.276043 0.500000 
761 1 0.606943 0.259000 0.500000 
762 1 0.616512 0.276408 0.500000 
763 1 0.626868 0.259352 0.500000 
764 1 0.636465 0.276722 0.500000 
765 1 0.646827 0.259650 0.500000 
766 1 0.656422 0.277003 0.500000 
767 1 0.666822 0.259988 0.500000 
768 1 0.676440 0.277274 0.500000 
769 1 0.686840 0.260255 0.500000 
770 1 0.696482 0.277569 0.500000 
771 1 0.706807 0.260475 0.500000 
772 1 0.716507 0.277748 0.500000 
773 1 0.726813 0.260709 0.500000 
774 1 0.736506 0.277949 0.500000 
775 1 0.746894 0.261043 0.500000 
776 1 0.756574 0.278224 0.500000 
777 1 0.766984 0.261358 0.500000 
778 1 0.776648 0.278546 0.500000 
779 1 0.787002 0.261576 0.500000 
780 1 0.796703 0.278716 0.500000 
781 1 0.807005 0.261699 0.500000 
782 1 0.816742 0.278827 0.500000 
783 1 0.827034 0.261819 0.500000 
784 1 0.836821 0.278917 0.500000 
785 1 0.847050 0.261915 0.500000 
786 1 0.856863 0.279014 0.500000 
787 1 0.867010 0.261956 0.500000 
788 1 0.876842 0.279032 0.500000 
789 1 0.886988 0.261955 0.500000 
790 1 0.896809 0.279072 0.500000 
791 1 0.907019 0.262051 0.500000 
792 1 0.916852 0.279153 0.500000 
793 1 0.927097 0.262213 0.500000 
794 1 0.936944 0.279284 0.500000 
795 1 0.947159 0.262387 0.500000 
796 1 0.956982 0.279417 0.500000 
797 1 0.967200 0.262468 0.500000 
798 1 0.977036 0.279488 0.500000 
799 1 0.987245 0.262544 0.500000 
800 1 0.997089 0.279555 0.500000 
801 1 0.006256 0.268068 0.500000 
802 1 0.015779 0.285121 0.500000 
803 1 0.026272 0.268696 0.500000 
804 1 0.035792 0.285753 0.500000 
805 1 0.046292 0.269335 0.500000 
806 1 0.055810 0.286400 0.500000 
807 1 0.066319 0.269991 0.500000 
808 1 0.075875 0.287090 0.500000 
809 1 0.086419 0.270728 0.500000 
810 1 0.095974 0.287825 0.500000 
811 1 0.106517 0.271493 0.500000 
812 1 0.116030 0.288622 0.500000 
813 1 0.126585 0.272279 0.500000 
814 1 0.136074 0.289461 0.500000 
815 1 0.146644 0.273109 0.500000 
816 1 0.156154 0.290311 0.500000 
817 1 0.166700 0.273941 0.500000 
818 1 0.176221 0.291150 0.500000 
819 1 0.186768 0.274829 0.500000 
820 1 0.196311 0.292028 0.500000 
821 1 0.206856 0.275711 0.500000 
822 1 0.216417 0.292932 0.500000 
823 1 0.226966 0.276614 0.500000 
824 1 0.236498 0.293892 0.500000 
825 1 0.247049 0.277538 0.500000 
826 1 0.256526 0.294895 0.500000 
827 1 0.267087 0.278509 0.500000 
828 1 0.276557 0.295904 0.500000 
829 1 0.287114 0.279513 0.500000 
830 1 0.296651 0.296902 0.500000 
831 1 0.307176 0.280510 0.500000 
832 1 0.316764 0.297890 0.500000 
833 1 0.327251 0.281483 0.500000 
834 1 0.336810 0.298940 0.500000 
835 1 0.347295 0.282500 0.500000 
836 1 0.356775 0.300087 0.500000 
837 1 0.367263 0.283604 0.500000 
838 1 0.376726 0.301257 0.500000 
839 1 0.387187 0.284760 0.500000 
840 1 0.396671 0.302406 0.500000 
841 1 0.407113 0.285876 0.500000 
842 1 0.416567 0.303541 0.500000 
843 1 0.427026 0.286957 0.500000 
844 1 0.436422 0.304693 0.500000 
845 1 0.446891 0.288036 0.500000 
846 1 0.456286 0.305744 0.500000 
847 1 0.466748 0.289029 0.500000 
848 1 0.476188 0.306656 0.500000 
849 1 0.486626 0.289889 0.500000 
850 1 0.496085 0.307514 0.500000 
851 1 0.506501 0.290674 0.500000 
852 1 0.515986 0.308276 0.500000 
853 1 0.526393 0.291373 0.500000 
854 1 0.535885 0.308957 0.500000 
855 1 0.546297 0.292042 0.500000 
856 1 0.555820 0.309541 0.500000 
857 1 0.566217 0.292594 0.500000 
858 1 0.575741 0.310081 0.500000 
859 1 0.586131 0.293083 0.500000 
860 1 0.595674 0.310500 0.500000 
861 1 0.606066 0.293450 0.500000 
862 1 0.615586 0.310845 0.500000 
863 1 0.626024 0.293790 0.500000 
864 1 0.635558 0.311108 0.500000 
865 1 0.646016 0.294077 0.500000 
866 1 0.655556 0.311384 0.500000 
867 1 0.666017 0.294306 0.500000 
868 1 0.675600 0.311565 0.500000 
869 1 0.686058 0.294559 0.500000 
870 1 0.695679 0.311792 0.500000 
871 1 0.706134 0.294801 0.500000 
872 1 0.715771 0.312013 0.500000 
873 1 0.726189 0.294982 0.500000 
874 1 0.735838 0.312139 0.500000 
875 1 0.746263 0.295133 0.500000 
876 1 0.755936 0.312309 0.500000 
877 1 0.766345 0.295436 0.500000 
878 1 0.776080 0.312590 0.500000 
879 1 0.786440 0.295687 0.500000 
880 1 0.796228 0.312819 0.500000 
881 1 0.806476 0.295828 0.500000 