ITEM: TIMESTEP
3900
ITEM: NUMBER OF ATOMS
2850
ITEM: BOX BOUNDS ss ss pp
-28.0536 28.3253 
-28.9988 28.9984 
-0.5 0.5 
ITEM: ATOMS id type xs ys zs
1 1 0.012661 0.000000 0.500000 
2 1 0.022340 0.017073 0.500000 
3 1 0.032688 0.000597 0.500000 
4 1 0.042369 0.017677 0.500000 
5 1 0.052715 0.001202 0.500000 
6 1 0.062397 0.018289 0.500000 
7 1 0.072742 0.001814 0.500000 
8 1 0.082426 0.018911 0.500000 
9 1 0.092767 0.002433 0.500000 
10 1 0.102455 0.019539 0.500000 
11 1 0.112794 0.003060 0.500000 
12 1 0.122484 0.020177 0.500000 
13 1 0.132817 0.003697 0.500000 
14 1 0.142511 0.020822 0.500000 
15 1 0.152841 0.004338 0.500000 
16 1 0.162536 0.021475 0.500000 
17 1 0.172861 0.004988 0.500000 
18 1 0.182559 0.022136 0.500000 
19 1 0.192879 0.005643 0.500000 
20 1 0.202579 0.022803 0.500000 
21 1 0.212895 0.006305 0.500000 
22 1 0.222596 0.023475 0.500000 
23 1 0.232906 0.006973 0.500000 
24 1 0.242610 0.024155 0.500000 
25 1 0.252912 0.007645 0.500000 
26 1 0.262618 0.024839 0.500000 
27 1 0.272914 0.008319 0.500000 
28 1 0.282622 0.025527 0.500000 
29 1 0.292911 0.008997 0.500000 
30 1 0.302619 0.026217 0.500000 
31 1 0.312901 0.009676 0.500000 
32 1 0.322610 0.026908 0.500000 
33 1 0.332885 0.010356 0.500000 
34 1 0.342593 0.027600 0.500000 
35 1 0.352861 0.011033 0.500000 
36 1 0.362570 0.028289 0.500000 
37 1 0.372830 0.011707 0.500000 
38 1 0.382537 0.028974 0.500000 
39 1 0.392791 0.012376 0.500000 
40 1 0.402497 0.029655 0.500000 
41 1 0.412744 0.013039 0.500000 
42 1 0.422448 0.030326 0.500000 
43 1 0.432688 0.013694 0.500000 
44 1 0.442390 0.030989 0.500000 
45 1 0.452624 0.014337 0.500000 
46 1 0.462324 0.031639 0.500000 
47 1 0.472553 0.014968 0.500000 
48 1 0.482250 0.032276 0.500000 
49 1 0.492474 0.015584 0.500000 
50 1 0.502167 0.032896 0.500000 
51 1 0.512388 0.016184 0.500000 
52 1 0.522078 0.033498 0.500000 
53 1 0.532295 0.016766 0.500000 
54 1 0.541983 0.034081 0.500000 
55 1 0.552198 0.017330 0.500000 
56 1 0.561882 0.034643 0.500000 
57 1 0.572095 0.017873 0.500000 
58 1 0.581777 0.035184 0.500000 
59 1 0.591989 0.018396 0.500000 
60 1 0.601668 0.035702 0.500000 
61 1 0.611880 0.018896 0.500000 
62 1 0.621558 0.036195 0.500000 
63 1 0.631769 0.019373 0.500000 
64 1 0.641446 0.036666 0.500000 
65 1 0.651657 0.019829 0.500000 
66 1 0.661334 0.037110 0.500000 
67 1 0.671546 0.020261 0.500000 
68 1 0.681223 0.037533 0.500000 
69 1 0.691436 0.020670 0.500000 
70 1 0.701115 0.037931 0.500000 
71 1 0.711328 0.021058 0.500000 
72 1 0.721007 0.038307 0.500000 
73 1 0.731222 0.021423 0.500000 
74 1 0.740905 0.038660 0.500000 
75 1 0.751120 0.021768 0.500000 
76 1 0.760806 0.038993 0.500000 
77 1 0.771021 0.022094 0.500000 
78 1 0.780711 0.039305 0.500000 
79 1 0.790927 0.022399 0.500000 
80 1 0.800620 0.039597 0.500000 
81 1 0.810837 0.022687 0.500000 
82 1 0.820536 0.039873 0.500000 
83 1 0.830751 0.022958 0.500000 
84 1 0.840456 0.040130 0.500000 
85 1 0.850671 0.023211 0.500000 
86 1 0.860382 0.040369 0.500000 
87 1 0.870595 0.023449 0.500000 
88 1 0.880312 0.040595 0.500000 
89 1 0.890525 0.023674 0.500000 
90 1 0.900248 0.040807 0.500000 
91 1 0.910459 0.023884 0.500000 
92 1 0.920188 0.041005 0.500000 
93 1 0.930398 0.024080 0.500000 
94 1 0.940134 0.041192 0.500000 
95 1 0.950341 0.024267 0.500000 
96 1 0.960084 0.041368 0.500000 
97 1 0.970290 0.024443 0.500000 
98 1 0.980040 0.041531 0.500000 
99 1 0.990243 0.024606 0.500000 
100 1 1.000000 0.041686 0.500000 
101 1 0.011983 0.033545 0.500000 
102 1 0.021650 0.050615 0.500000 
103 1 0.032014 0.034148 0.500000 
104 1 0.041680 0.051227 0.500000 
105 1 0.052044 0.034760 0.500000 
106 1 0.061715 0.051847 0.500000 
107 1 0.072075 0.035381 0.500000 
108 1 0.081750 0.052480 0.500000 
109 1 0.092107 0.036012 0.500000 
110 1 0.101789 0.053126 0.500000 
111 1 0.112138 0.036650 0.500000 
112 1 0.121822 0.053780 0.500000 
113 1 0.132168 0.037297 0.500000 
114 1 0.141856 0.054441 0.500000 
115 1 0.152197 0.037952 0.500000 
116 1 0.161889 0.055111 0.500000 
117 1 0.172226 0.038617 0.500000 
118 1 0.181916 0.055786 0.500000 
119 1 0.192251 0.039288 0.500000 
120 1 0.201940 0.056474 0.500000 
121 1 0.212274 0.039967 0.500000 
122 1 0.221962 0.057164 0.500000 
123 1 0.232293 0.040654 0.500000 
124 1 0.241978 0.057866 0.500000 
125 1 0.252309 0.041345 0.500000 
126 1 0.261993 0.058573 0.500000 
127 1 0.272318 0.042042 0.500000 
128 1 0.281999 0.059281 0.500000 
129 1 0.292324 0.042743 0.500000 
130 1 0.302001 0.059999 0.500000 
131 1 0.312323 0.043447 0.500000 
132 1 0.321994 0.060715 0.500000 
133 1 0.332314 0.044150 0.500000 
134 1 0.341979 0.061430 0.500000 
135 1 0.352297 0.044856 0.500000 
136 1 0.361955 0.062143 0.500000 
137 1 0.372273 0.045557 0.500000 
138 1 0.381924 0.062857 0.500000 
139 1 0.392240 0.046254 0.500000 
140 1 0.401884 0.063565 0.500000 
141 1 0.412198 0.046944 0.500000 
142 1 0.421837 0.064263 0.500000 
143 1 0.432147 0.047626 0.500000 
144 1 0.441778 0.064949 0.500000 
145 1 0.452087 0.048297 0.500000 
146 1 0.461710 0.065625 0.500000 
147 1 0.472018 0.048954 0.500000 
148 1 0.481635 0.066283 0.500000 
149 1 0.491940 0.049595 0.500000 
150 1 0.501554 0.066926 0.500000 
151 1 0.511855 0.050220 0.500000 
152 1 0.521465 0.067543 0.500000 
153 1 0.531762 0.050823 0.500000 
154 1 0.541372 0.068148 0.500000 
155 1 0.551663 0.051406 0.500000 
156 1 0.561270 0.068723 0.500000 
157 1 0.571560 0.051966 0.500000 
158 1 0.581167 0.069272 0.500000 
159 1 0.591452 0.052503 0.500000 
160 1 0.601066 0.069800 0.500000 
161 1 0.611341 0.053013 0.500000 
162 1 0.620961 0.070303 0.500000 
163 1 0.631230 0.053499 0.500000 
164 1 0.640858 0.070771 0.500000 
165 1 0.651117 0.053960 0.500000 
166 1 0.660758 0.071218 0.500000 
167 1 0.671006 0.054396 0.500000 
168 1 0.680656 0.071644 0.500000 
169 1 0.690897 0.054806 0.500000 
170 1 0.700557 0.072039 0.500000 
171 1 0.710789 0.055192 0.500000 
172 1 0.720459 0.072414 0.500000 
173 1 0.730685 0.055554 0.500000 
174 1 0.740365 0.072763 0.500000 
175 1 0.750586 0.055894 0.500000 
176 1 0.760276 0.073092 0.500000 
177 1 0.770490 0.056213 0.500000 
178 1 0.780189 0.073396 0.500000 
179 1 0.790400 0.056511 0.500000 
180 1 0.800109 0.073679 0.500000 
181 1 0.810316 0.056789 0.500000 
182 1 0.820035 0.073946 0.500000 
183 1 0.830238 0.057049 0.500000 
184 1 0.839962 0.074195 0.500000 
185 1 0.850164 0.057294 0.500000 
186 1 0.859893 0.074431 0.500000 
187 1 0.870095 0.057522 0.500000 
188 1 0.879829 0.074645 0.500000 
189 1 0.890032 0.057734 0.500000 
190 1 0.899771 0.074847 0.500000 
191 1 0.909975 0.057934 0.500000 
192 1 0.919720 0.075039 0.500000 
193 1 0.929922 0.058120 0.500000 
194 1 0.939670 0.075220 0.500000 
195 1 0.949875 0.058294 0.500000 
196 1 0.959621 0.075390 0.500000 
197 1 0.969833 0.058458 0.500000 
198 1 0.979588 0.075542 0.500000 
199 1 0.989796 0.058613 0.500000 
200 1 0.999557 0.075685 0.500000 
201 1 0.011275 0.067077 0.500000 
202 1 0.020924 0.084144 0.500000 
203 1 0.031308 0.067688 0.500000 
204 1 0.040959 0.084763 0.500000 
205 1 0.051342 0.068307 0.500000 
206 1 0.060994 0.085390 0.500000 
207 1 0.071376 0.068936 0.500000 
208 1 0.081042 0.086037 0.500000 
209 1 0.091421 0.069588 0.500000 
210 1 0.101087 0.086709 0.500000 
211 1 0.111459 0.070252 0.500000 
212 1 0.121130 0.087382 0.500000 
213 1 0.131496 0.070914 0.500000 
214 1 0.141168 0.088056 0.500000 
215 1 0.151534 0.071590 0.500000 
216 1 0.161205 0.088748 0.500000 
217 1 0.171567 0.072274 0.500000 
218 1 0.181237 0.089452 0.500000 
219 1 0.191594 0.072969 0.500000 
220 1 0.201271 0.090157 0.500000 
221 1 0.211621 0.073668 0.500000 
222 1 0.221298 0.090873 0.500000 
223 1 0.231641 0.074373 0.500000 
224 1 0.241316 0.091590 0.500000 
225 1 0.251659 0.075088 0.500000 
226 1 0.261330 0.092327 0.500000 
227 1 0.271668 0.075811 0.500000 
228 1 0.281336 0.093064 0.500000 
229 1 0.291669 0.076533 0.500000 
230 1 0.301333 0.093798 0.500000 
231 1 0.311669 0.077265 0.500000 
232 1 0.321325 0.094544 0.500000 
233 1 0.331658 0.077995 0.500000 
234 1 0.341309 0.095287 0.500000 
235 1 0.351639 0.078722 0.500000 
236 1 0.361285 0.096030 0.500000 
237 1 0.371610 0.079449 0.500000 
238 1 0.381253 0.096772 0.500000 
239 1 0.391574 0.080177 0.500000 
240 1 0.401214 0.097505 0.500000 
241 1 0.411531 0.080889 0.500000 
242 1 0.421164 0.098228 0.500000 
243 1 0.431476 0.081596 0.500000 
244 1 0.441103 0.098945 0.500000 
245 1 0.451410 0.082290 0.500000 
246 1 0.461034 0.099643 0.500000 
247 1 0.471336 0.082968 0.500000 
248 1 0.480954 0.100318 0.500000 
249 1 0.491256 0.083625 0.500000 
250 1 0.500871 0.100974 0.500000 
251 1 0.511170 0.084262 0.500000 
252 1 0.520786 0.101603 0.500000 
253 1 0.531082 0.084877 0.500000 
254 1 0.540698 0.102219 0.500000 
255 1 0.550987 0.085479 0.500000 
256 1 0.560607 0.102809 0.500000 
257 1 0.570886 0.086041 0.500000 
258 1 0.580511 0.103361 0.500000 
259 1 0.590787 0.086578 0.500000 
260 1 0.600413 0.103892 0.500000 
261 1 0.610688 0.087100 0.500000 
262 1 0.620321 0.104389 0.500000 
263 1 0.630592 0.087582 0.500000 
264 1 0.640228 0.104862 0.500000 
265 1 0.650493 0.088038 0.500000 
266 1 0.660131 0.105312 0.500000 
267 1 0.670396 0.088480 0.500000 
268 1 0.680044 0.105731 0.500000 
269 1 0.690305 0.088886 0.500000 
270 1 0.699961 0.106121 0.500000 
271 1 0.710218 0.089269 0.500000 
272 1 0.719882 0.106490 0.500000 
273 1 0.730131 0.089629 0.500000 
274 1 0.739806 0.106835 0.500000 
275 1 0.750045 0.089965 0.500000 
276 1 0.759731 0.107159 0.500000 
277 1 0.769964 0.090280 0.500000 
278 1 0.779658 0.107462 0.500000 
279 1 0.789888 0.090571 0.500000 
280 1 0.799588 0.107742 0.500000 
281 1 0.809817 0.090845 0.500000 
282 1 0.819525 0.108006 0.500000 
283 1 0.829748 0.091101 0.500000 
284 1 0.839461 0.108248 0.500000 
285 1 0.849684 0.091339 0.500000 
286 1 0.859403 0.108471 0.500000 
287 1 0.869623 0.091559 0.500000 
288 1 0.879347 0.108684 0.500000 
289 1 0.889563 0.091763 0.500000 
290 1 0.899295 0.108878 0.500000 
291 1 0.909509 0.091956 0.500000 
292 1 0.919248 0.109064 0.500000 
293 1 0.929459 0.092145 0.500000 
294 1 0.939204 0.109249 0.500000 
295 1 0.949407 0.092323 0.500000 
296 1 0.959160 0.109410 0.500000 
297 1 0.969375 0.092475 0.500000 
298 1 0.979136 0.109550 0.500000 
299 1 0.989349 0.092617 0.500000 
300 1 0.999117 0.109681 0.500000 
301 1 0.010532 0.100598 0.500000 
302 1 0.020165 0.117663 0.500000 
303 1 0.030566 0.101214 0.500000 
304 1 0.040201 0.118287 0.500000 
305 1 0.050602 0.101839 0.500000 
306 1 0.060239 0.118920 0.500000 
307 1 0.070640 0.102476 0.500000 
308 1 0.080289 0.119582 0.500000 
309 1 0.090692 0.103150 0.500000 
310 1 0.100341 0.120270 0.500000 
311 1 0.110743 0.103834 0.500000 
312 1 0.120393 0.120964 0.500000 
313 1 0.130789 0.104517 0.500000 
314 1 0.140439 0.121663 0.500000 
315 1 0.150828 0.105210 0.500000 
316 1 0.160483 0.122374 0.500000 
317 1 0.170865 0.105920 0.500000 
318 1 0.180527 0.123093 0.500000 
319 1 0.190905 0.106631 0.500000 
320 1 0.200563 0.123825 0.500000 
321 1 0.210936 0.107356 0.500000 
322 1 0.220595 0.124565 0.500000 
323 1 0.230962 0.108085 0.500000 
324 1 0.240620 0.125311 0.500000 
325 1 0.250979 0.108823 0.500000 
326 1 0.260635 0.126068 0.500000 
327 1 0.270993 0.109574 0.500000 
328 1 0.280645 0.126830 0.500000 
329 1 0.291000 0.110328 0.500000 
330 1 0.300650 0.127607 0.500000 
331 1 0.310992 0.111081 0.500000 
332 1 0.320644 0.128374 0.500000 
333 1 0.330979 0.111837 0.500000 
334 1 0.340629 0.129145 0.500000 
335 1 0.350963 0.112596 0.500000 
336 1 0.360607 0.129922 0.500000 
337 1 0.370938 0.113356 0.500000 
338 1 0.380576 0.130696 0.500000 
339 1 0.390900 0.114109 0.500000 
340 1 0.400534 0.131461 0.500000 
341 1 0.410850 0.114849 0.500000 
342 1 0.420482 0.132210 0.500000 
343 1 0.430793 0.115583 0.500000 
344 1 0.440426 0.132950 0.500000 
345 1 0.450733 0.116303 0.500000 
346 1 0.460359 0.133673 0.500000 
347 1 0.470663 0.117004 0.500000 
348 1 0.480282 0.134376 0.500000 
349 1 0.490581 0.117678 0.500000 
350 1 0.500200 0.135045 0.500000 
351 1 0.510500 0.118329 0.500000 
352 1 0.520116 0.135696 0.500000 
353 1 0.530408 0.118956 0.500000 
354 1 0.540024 0.136316 0.500000 
355 1 0.550316 0.119564 0.500000 
356 1 0.559933 0.136912 0.500000 
357 1 0.570224 0.120140 0.500000 
358 1 0.579843 0.137476 0.500000 
359 1 0.590131 0.120687 0.500000 
360 1 0.599758 0.138005 0.500000 
361 1 0.610040 0.121197 0.500000 
362 1 0.619670 0.138503 0.500000 
363 1 0.629950 0.121683 0.500000 
364 1 0.639586 0.138973 0.500000 
365 1 0.649860 0.122142 0.500000 
366 1 0.659506 0.139411 0.500000 
367 1 0.669778 0.122571 0.500000 
368 1 0.679429 0.139826 0.500000 
369 1 0.689698 0.122974 0.500000 
370 1 0.699357 0.140211 0.500000 
371 1 0.709621 0.123349 0.500000 
372 1 0.719286 0.140572 0.500000 
373 1 0.729547 0.123703 0.500000 
374 1 0.739220 0.140912 0.500000 
375 1 0.749477 0.124034 0.500000 
376 1 0.759160 0.141230 0.500000 
377 1 0.769413 0.124349 0.500000 
378 1 0.779102 0.141534 0.500000 
379 1 0.789349 0.124639 0.500000 
380 1 0.799045 0.141807 0.500000 
381 1 0.809289 0.124906 0.500000 
382 1 0.818992 0.142064 0.500000 
383 1 0.829231 0.125159 0.500000 
384 1 0.838942 0.142301 0.500000 
385 1 0.849173 0.125383 0.500000 
386 1 0.858892 0.142517 0.500000 
387 1 0.869119 0.125602 0.500000 
388 1 0.878849 0.142723 0.500000 
389 1 0.889073 0.125802 0.500000 
390 1 0.898807 0.142914 0.500000 
391 1 0.909026 0.125987 0.500000 
392 1 0.918766 0.143092 0.500000 
393 1 0.928983 0.126172 0.500000 
394 1 0.938731 0.143275 0.500000 
395 1 0.948940 0.126349 0.500000 
396 1 0.958701 0.143428 0.500000 
397 1 0.968919 0.126487 0.500000 
398 1 0.978689 0.143555 0.500000 
399 1 0.988905 0.126616 0.500000 
400 1 0.998682 0.143674 0.500000 
401 1 0.009754 0.134110 0.500000 
402 1 0.019367 0.151171 0.500000 
403 1 0.029790 0.134729 0.500000 
404 1 0.039403 0.151799 0.500000 
405 1 0.049825 0.135360 0.500000 
406 1 0.059442 0.152437 0.500000 
407 1 0.069865 0.136003 0.500000 
408 1 0.079499 0.153111 0.500000 
409 1 0.089923 0.136695 0.500000 
410 1 0.099558 0.153815 0.500000 
411 1 0.109980 0.137396 0.500000 
412 1 0.119614 0.154530 0.500000 
413 1 0.130035 0.138105 0.500000 
414 1 0.139668 0.155253 0.500000 
415 1 0.150085 0.138820 0.500000 
416 1 0.159721 0.155984 0.500000 
417 1 0.170132 0.139543 0.500000 
418 1 0.179765 0.156727 0.500000 
419 1 0.190174 0.140283 0.500000 
420 1 0.199812 0.157479 0.500000 
421 1 0.210210 0.141028 0.500000 
422 1 0.219850 0.158242 0.500000 
423 1 0.230242 0.141784 0.500000 
424 1 0.239882 0.159014 0.500000 
425 1 0.250267 0.142551 0.500000 
426 1 0.259910 0.159798 0.500000 
427 1 0.270285 0.143322 0.500000 
428 1 0.279926 0.160598 0.500000 
429 1 0.290290 0.144107 0.500000 
430 1 0.299936 0.161392 0.500000 
431 1 0.310296 0.144893 0.500000 
432 1 0.319936 0.162200 0.500000 
433 1 0.330291 0.145683 0.500000 
434 1 0.339927 0.163010 0.500000 
435 1 0.350273 0.146474 0.500000 
436 1 0.359908 0.163818 0.500000 
437 1 0.370248 0.147266 0.500000 
438 1 0.379877 0.164628 0.500000 
439 1 0.390212 0.148054 0.500000 
440 1 0.399838 0.165424 0.500000 
441 1 0.410168 0.148828 0.500000 
442 1 0.419790 0.166211 0.500000 
443 1 0.430111 0.149586 0.500000 
444 1 0.439730 0.166982 0.500000 
445 1 0.450046 0.150335 0.500000 
446 1 0.459660 0.167733 0.500000 
447 1 0.469975 0.151062 0.500000 
448 1 0.479589 0.168459 0.500000 
449 1 0.489897 0.151760 0.500000 
450 1 0.499511 0.169154 0.500000 
451 1 0.509812 0.152427 0.500000 
452 1 0.519425 0.169818 0.500000 
453 1 0.529725 0.153070 0.500000 
454 1 0.539336 0.170446 0.500000 
455 1 0.549635 0.153680 0.500000 
456 1 0.559247 0.171047 0.500000 
457 1 0.569546 0.154262 0.500000 
458 1 0.579161 0.171610 0.500000 
459 1 0.589462 0.154806 0.500000 
460 1 0.599079 0.172138 0.500000 
461 1 0.609381 0.155322 0.500000 
462 1 0.619003 0.172636 0.500000 
463 1 0.629301 0.155804 0.500000 
464 1 0.638934 0.173099 0.500000 
465 1 0.649225 0.156257 0.500000 
466 1 0.658872 0.173530 0.500000 
467 1 0.669154 0.156679 0.500000 
468 1 0.678808 0.173939 0.500000 
469 1 0.689083 0.157074 0.500000 
470 1 0.698745 0.174317 0.500000 
471 1 0.709019 0.157442 0.500000 
472 1 0.718685 0.174670 0.500000 
473 1 0.728957 0.157789 0.500000 
474 1 0.738630 0.175002 0.500000 
475 1 0.748899 0.158112 0.500000 
476 1 0.758579 0.175312 0.500000 
477 1 0.768845 0.158424 0.500000 
478 1 0.778531 0.175609 0.500000 
479 1 0.788793 0.158711 0.500000 
480 1 0.798489 0.175878 0.500000 
481 1 0.808742 0.158970 0.500000 
482 1 0.818449 0.176128 0.500000 
483 1 0.828697 0.159215 0.500000 
484 1 0.838414 0.176355 0.500000 
485 1 0.848656 0.159437 0.500000 
486 1 0.858380 0.176565 0.500000 
487 1 0.868616 0.159642 0.500000 
488 1 0.878348 0.176763 0.500000 
489 1 0.888580 0.159838 0.500000 
490 1 0.898318 0.176948 0.500000 
491 1 0.908546 0.160019 0.500000 
492 1 0.918290 0.177121 0.500000 
493 1 0.928511 0.160197 0.500000 
494 1 0.938266 0.177294 0.500000 
495 1 0.948477 0.160370 0.500000 
496 1 0.958249 0.177440 0.500000 
497 1 0.968470 0.160496 0.500000 
498 1 0.978251 0.177553 0.500000 
499 1 0.988467 0.160611 0.500000 
500 1 0.998258 0.177659 0.500000 
501 1 0.008938 0.167610 0.500000 
502 1 0.018532 0.184668 0.500000 
503 1 0.028972 0.168234 0.500000 
504 1 0.038566 0.185299 0.500000 
505 1 0.049008 0.168868 0.500000 
506 1 0.058602 0.185942 0.500000 
507 1 0.069047 0.169517 0.500000 
508 1 0.078661 0.186623 0.500000 
509 1 0.089115 0.170222 0.500000 
510 1 0.098722 0.187343 0.500000 
511 1 0.109177 0.170942 0.500000 
512 1 0.118784 0.188075 0.500000 
513 1 0.129236 0.171671 0.500000 
514 1 0.138848 0.188816 0.500000 
515 1 0.149293 0.172406 0.500000 
516 1 0.158907 0.189569 0.500000 
517 1 0.169345 0.173157 0.500000 
518 1 0.178968 0.190330 0.500000 
519 1 0.189397 0.173912 0.500000 
520 1 0.199020 0.191109 0.500000 
521 1 0.209444 0.174685 0.500000 
522 1 0.219068 0.191899 0.500000 
523 1 0.229483 0.175464 0.500000 
524 1 0.239108 0.192701 0.500000 
525 1 0.249515 0.176255 0.500000 
526 1 0.259138 0.193518 0.500000 
527 1 0.269538 0.177067 0.500000 
528 1 0.279171 0.194345 0.500000 
529 1 0.289560 0.177879 0.500000 
530 1 0.299192 0.195177 0.500000 
531 1 0.309570 0.178696 0.500000 
532 1 0.319198 0.196020 0.500000 
533 1 0.329569 0.179525 0.500000 
534 1 0.339198 0.196865 0.500000 
535 1 0.349558 0.180353 0.500000 
536 1 0.359183 0.197719 0.500000 
537 1 0.369534 0.181182 0.500000 
538 1 0.379159 0.198563 0.500000 
539 1 0.389502 0.182004 0.500000 
540 1 0.399123 0.199404 0.500000 
541 1 0.409458 0.182817 0.500000 
542 1 0.419073 0.200230 0.500000 
543 1 0.429403 0.183616 0.500000 
544 1 0.439016 0.201034 0.500000 
545 1 0.449339 0.184391 0.500000 
546 1 0.458945 0.201812 0.500000 
547 1 0.469270 0.185139 0.500000 
548 1 0.478869 0.202565 0.500000 
549 1 0.489196 0.185868 0.500000 
550 1 0.498795 0.203289 0.500000 
551 1 0.509113 0.186558 0.500000 
552 1 0.518716 0.203968 0.500000 
553 1 0.529028 0.187209 0.500000 
554 1 0.538633 0.204608 0.500000 
555 1 0.548943 0.187828 0.500000 
556 1 0.558553 0.205209 0.500000 
557 1 0.568861 0.188413 0.500000 
558 1 0.578478 0.205777 0.500000 
559 1 0.588781 0.188957 0.500000 
560 1 0.598407 0.206298 0.500000 
561 1 0.608705 0.189467 0.500000 
562 1 0.618337 0.206788 0.500000 
563 1 0.628637 0.189941 0.500000 
564 1 0.638272 0.207241 0.500000 
565 1 0.648576 0.190382 0.500000 
566 1 0.658211 0.207666 0.500000 
567 1 0.668514 0.190799 0.500000 
568 1 0.678158 0.208061 0.500000 
569 1 0.688458 0.191190 0.500000 
570 1 0.698112 0.208435 0.500000 
571 1 0.708405 0.191554 0.500000 
572 1 0.718071 0.208784 0.500000 
573 1 0.728356 0.191894 0.500000 
574 1 0.738032 0.209106 0.500000 
575 1 0.748312 0.192206 0.500000 
576 1 0.757995 0.209409 0.500000 
577 1 0.768267 0.192508 0.500000 
578 1 0.777966 0.209687 0.500000 
579 1 0.788230 0.192783 0.500000 
580 1 0.797939 0.209947 0.500000 
581 1 0.808197 0.193037 0.500000 
582 1 0.817911 0.210187 0.500000 
583 1 0.828167 0.193271 0.500000 
584 1 0.837886 0.210407 0.500000 
585 1 0.848139 0.193486 0.500000 
586 1 0.857865 0.210612 0.500000 
587 1 0.868113 0.193689 0.500000 
588 1 0.877851 0.210802 0.500000 
589 1 0.888089 0.193877 0.500000 
590 1 0.897835 0.210983 0.500000 
591 1 0.908066 0.194051 0.500000 
592 1 0.917818 0.211149 0.500000 
593 1 0.928042 0.194219 0.500000 
594 1 0.937808 0.211310 0.500000 
595 1 0.948021 0.194385 0.500000 
596 1 0.957807 0.211443 0.500000 
597 1 0.968031 0.194496 0.500000 
598 1 0.977825 0.211543 0.500000 
599 1 0.988043 0.194599 0.500000 
600 1 0.997847 0.211634 0.500000 
601 1 0.008083 0.201103 0.500000 
602 1 0.017654 0.218157 0.500000 
603 1 0.028113 0.201727 0.500000 
604 1 0.037684 0.218790 0.500000 
605 1 0.048147 0.202367 0.500000 
606 1 0.057718 0.219436 0.500000 
607 1 0.068185 0.203017 0.500000 
608 1 0.077773 0.220126 0.500000 
609 1 0.088253 0.203738 0.500000 
610 1 0.097838 0.220856 0.500000 
611 1 0.108318 0.204469 0.500000 
612 1 0.117905 0.221598 0.500000 
613 1 0.128385 0.205213 0.500000 
614 1 0.137973 0.222358 0.500000 
615 1 0.148450 0.205972 0.500000 
616 1 0.158040 0.223129 0.500000 
617 1 0.168512 0.206735 0.500000 
618 1 0.178105 0.223913 0.500000 
619 1 0.188571 0.207519 0.500000 
620 1 0.198170 0.224715 0.500000 
621 1 0.208628 0.208314 0.500000 
622 1 0.218230 0.225528 0.500000 
623 1 0.228681 0.209127 0.500000 
624 1 0.238283 0.226368 0.500000 
625 1 0.248722 0.209957 0.500000 
626 1 0.258334 0.227215 0.500000 
627 1 0.268757 0.210787 0.500000 
628 1 0.278372 0.228071 0.500000 
629 1 0.288790 0.211635 0.500000 
630 1 0.298401 0.228944 0.500000 
631 1 0.308812 0.212497 0.500000 
632 1 0.318425 0.229827 0.500000 
633 1 0.328820 0.213355 0.500000 
634 1 0.338427 0.230724 0.500000 
635 1 0.348813 0.214234 0.500000 
636 1 0.358423 0.231623 0.500000 
637 1 0.368796 0.215104 0.500000 
638 1 0.378406 0.232513 0.500000 
639 1 0.388768 0.215967 0.500000 
640 1 0.398370 0.233395 0.500000 
641 1 0.408726 0.216824 0.500000 
642 1 0.418323 0.234261 0.500000 
643 1 0.428673 0.217653 0.500000 
644 1 0.438259 0.235108 0.500000 
645 1 0.448612 0.218474 0.500000 
646 1 0.458194 0.235932 0.500000 
647 1 0.468539 0.219257 0.500000 
648 1 0.478124 0.236713 0.500000 
649 1 0.488462 0.220006 0.500000 
650 1 0.498047 0.237455 0.500000 
651 1 0.508386 0.220717 0.500000 
652 1 0.517975 0.238149 0.500000 
653 1 0.528311 0.221382 0.500000 
654 1 0.537905 0.238798 0.500000 
655 1 0.548235 0.222007 0.500000 
656 1 0.557833 0.239404 0.500000 
657 1 0.568159 0.222588 0.500000 
658 1 0.577763 0.239957 0.500000 
659 1 0.588092 0.223130 0.500000 
660 1 0.597697 0.240481 0.500000 
661 1 0.608023 0.223637 0.500000 
662 1 0.617639 0.240962 0.500000 
663 1 0.627962 0.224100 0.500000 
664 1 0.637591 0.241408 0.500000 
665 1 0.647907 0.224538 0.500000 
666 1 0.657550 0.241825 0.500000 
667 1 0.667856 0.224939 0.500000 
668 1 0.677510 0.242206 0.500000 
669 1 0.687814 0.225317 0.500000 
670 1 0.697474 0.242567 0.500000 
671 1 0.707777 0.225672 0.500000 
672 1 0.717448 0.242902 0.500000 
673 1 0.727745 0.226005 0.500000 
674 1 0.737429 0.243219 0.500000 
675 1 0.747716 0.226314 0.500000 
676 1 0.757412 0.243505 0.500000 
677 1 0.767693 0.226595 0.500000 
678 1 0.777400 0.243773 0.500000 
679 1 0.787674 0.226858 0.500000 
680 1 0.797390 0.244023 0.500000 
681 1 0.807655 0.227105 0.500000 
682 1 0.817379 0.244254 0.500000 
683 1 0.827635 0.227330 0.500000 
684 1 0.837372 0.244464 0.500000 
685 1 0.847622 0.227537 0.500000 
686 1 0.857369 0.244660 0.500000 
687 1 0.867612 0.227729 0.500000 
688 1 0.877365 0.244841 0.500000 
689 1 0.887600 0.227910 0.500000 
690 1 0.897362 0.245008 0.500000 
691 1 0.907592 0.228081 0.500000 
692 1 0.917366 0.245169 0.500000 
693 1 0.927584 0.228238 0.500000 
694 1 0.937373 0.245317 0.500000 
695 1 0.947580 0.228392 0.500000 
696 1 0.957383 0.245436 0.500000 
697 1 0.967605 0.228489 0.500000 
698 1 0.977417 0.245522 0.500000 
699 1 0.987634 0.228577 0.500000 
700 1 0.997455 0.245600 0.500000 
701 1 0.007189 0.234587 0.500000 
702 1 0.016737 0.251640 0.500000 
703 1 0.027214 0.235215 0.500000 
704 1 0.036760 0.252274 0.500000 
705 1 0.047243 0.235854 0.500000 
706 1 0.056787 0.252921 0.500000 
707 1 0.067275 0.236508 0.500000 
708 1 0.076840 0.253613 0.500000 
709 1 0.087344 0.237237 0.500000 
710 1 0.096904 0.254353 0.500000 
711 1 0.107411 0.237978 0.500000 
712 1 0.116973 0.255103 0.500000 
713 1 0.127478 0.238731 0.500000 
714 1 0.137043 0.255869 0.500000 
715 1 0.147550 0.239504 0.500000 
716 1 0.157118 0.256655 0.500000 
717 1 0.167622 0.240290 0.500000 
718 1 0.177193 0.257462 0.500000 
719 1 0.187693 0.241097 0.500000 
720 1 0.197269 0.258286 0.500000 
721 1 0.207763 0.241917 0.500000 
722 1 0.217340 0.259131 0.500000 
723 1 0.227824 0.242758 0.500000 
724 1 0.237409 0.259993 0.500000 
725 1 0.247883 0.243612 0.500000 
726 1 0.257468 0.260875 0.500000 
727 1 0.267935 0.244487 0.500000 
728 1 0.277520 0.261780 0.500000 
729 1 0.287973 0.245374 0.500000 
730 1 0.297564 0.262692 0.500000 
731 1 0.308002 0.246269 0.500000 
732 1 0.317590 0.263629 0.500000 
733 1 0.328017 0.247191 0.500000 
734 1 0.337611 0.264568 0.500000 
735 1 0.348025 0.248111 0.500000 
736 1 0.357619 0.265519 0.500000 
737 1 0.368020 0.249031 0.500000 
738 1 0.377609 0.266471 0.500000 
739 1 0.387996 0.249946 0.500000 
740 1 0.397581 0.267404 0.500000 
741 1 0.407959 0.250844 0.500000 
742 1 0.417537 0.268329 0.500000 
743 1 0.427907 0.251732 0.500000 
744 1 0.437483 0.269223 0.500000 
745 1 0.447842 0.252584 0.500000 
746 1 0.457418 0.270081 0.500000 
747 1 0.467774 0.253404 0.500000 
748 1 0.477346 0.270898 0.500000 
749 1 0.487701 0.254185 0.500000 
750 1 0.497275 0.271661 0.500000 
751 1 0.507629 0.254907 0.500000 
752 1 0.517203 0.272363 0.500000 
753 1 0.527559 0.255583 0.500000 
754 1 0.537136 0.273018 0.500000 
755 1 0.547492 0.256213 0.500000 
756 1 0.557078 0.273620 0.500000 
757 1 0.567430 0.256790 0.500000 
758 1 0.577028 0.274176 0.500000 
759 1 0.587370 0.257326 0.500000 
760 1 0.596982 0.274689 0.500000 
761 1 0.607316 0.257824 0.500000 
762 1 0.616942 0.275157 0.500000 
763 1 0.627270 0.258281 0.500000 
764 1 0.636908 0.275593 0.500000 
765 1 0.647233 0.258707 0.500000 
766 1 0.656882 0.275992 0.500000 
767 1 0.667204 0.259100 0.500000 
768 1 0.676863 0.276366 0.500000 
769 1 0.687174 0.259465 0.500000 
770 1 0.696849 0.276711 0.500000 
771 1 0.707150 0.259804 0.500000 
772 1 0.716839 0.277032 0.500000 
773 1 0.727134 0.260121 0.500000 
774 1 0.736837 0.277328 0.500000 
775 1 0.747125 0.260418 0.500000 
776 1 0.756839 0.277605 0.500000 
777 1 0.767120 0.260687 0.500000 
778 1 0.776840 0.277859 0.500000 
779 1 0.787119 0.260940 0.500000 
780 1 0.796844 0.278100 0.500000 
781 1 0.807116 0.261177 0.500000 
782 1 0.816856 0.278317 0.500000 
783 1 0.827116 0.261390 0.500000 
784 1 0.836869 0.278517 0.500000 
785 1 0.847120 0.261589 0.500000 
786 1 0.856882 0.278699 0.500000 
787 1 0.867127 0.261772 0.500000 
788 1 0.876898 0.278871 0.500000 
789 1 0.887132 0.261941 0.500000 
790 1 0.896914 0.279028 0.500000 
791 1 0.907139 0.262097 0.500000 
792 1 0.916931 0.279176 0.500000 
793 1 0.927150 0.262248 0.500000 
794 1 0.936956 0.279313 0.500000 
795 1 0.947159 0.262387 0.500000 
796 1 0.956982 0.279417 0.500000 
797 1 0.967200 0.262468 0.500000 
798 1 0.977036 0.279488 0.500000 
799 1 0.987245 0.262544 0.500000 
800 1 0.997089 0.279555 0.500000 
801 1 0.006256 0.268068 0.500000 
802 1 0.015779 0.285121 0.500000 
803 1 0.026272 0.268696 0.500000 
804 1 0.035792 0.285753 0.500000 
805 1 0.046292 0.269335 0.500000 
806 1 0.055810 0.286400 0.500000 
807 1 0.066319 0.269991 0.500000 
808 1 0.075858 0.287095 0.500000 
809 1 0.086383 0.270723 0.500000 
810 1 0.095916 0.287832 0.500000 
811 1 0.106450 0.271469 0.500000 
812 1 0.115981 0.288589 0.500000 
813 1 0.126519 0.272232 0.500000 
814 1 0.136051 0.289360 0.500000 
815 1 0.146594 0.273011 0.500000 
816 1 0.156129 0.290160 0.500000 
817 1 0.166672 0.273817 0.500000 
818 1 0.176210 0.290982 0.500000 
819 1 0.186751 0.274641 0.500000 
820 1 0.196291 0.291826 0.500000 
821 1 0.206826 0.275485 0.500000 
822 1 0.216372 0.292690 0.500000 
823 1 0.226903 0.276351 0.500000 
824 1 0.236449 0.293585 0.500000 
825 1 0.246975 0.277244 0.500000 
826 1 0.256527 0.294508 0.500000 
827 1 0.267040 0.278156 0.500000 
828 1 0.276599 0.295447 0.500000 
829 1 0.287100 0.279085 0.500000 
830 1 0.296658 0.296415 0.500000 
831 1 0.307143 0.280038 0.500000 
832 1 0.316707 0.297397 0.500000 
833 1 0.327177 0.280999 0.500000 
834 1 0.336738 0.298402 0.500000 
835 1 0.347192 0.281976 0.500000 
836 1 0.356755 0.299412 0.500000 
837 1 0.367195 0.282957 0.500000 
838 1 0.376760 0.300425 0.500000 
839 1 0.387187 0.283935 0.500000 
840 1 0.396741 0.301435 0.500000 
841 1 0.407155 0.284899 0.500000 
842 1 0.416706 0.302422 0.500000 
843 1 0.427109 0.285838 0.500000 
844 1 0.436652 0.303380 0.500000 
845 1 0.447049 0.286742 0.500000 
846 1 0.456589 0.304288 0.500000 
847 1 0.466979 0.287601 0.500000 
848 1 0.476521 0.305132 0.500000 
849 1 0.486909 0.288401 0.500000 
850 1 0.496449 0.305912 0.500000 
851 1 0.506842 0.289143 0.500000 
852 1 0.516388 0.306625 0.500000 
853 1 0.526777 0.289825 0.500000 
854 1 0.536338 0.307278 0.500000 
855 1 0.546718 0.290447 0.500000 
856 1 0.556292 0.307871 0.500000 
857 1 0.566671 0.291023 0.500000 
858 1 0.576260 0.308418 0.500000 
859 1 0.586630 0.291553 0.500000 
860 1 0.596235 0.308913 0.500000 
861 1 0.606599 0.292033 0.500000 
862 1 0.616220 0.309364 0.500000 
863 1 0.626573 0.292479 0.500000 
864 1 0.636212 0.309786 0.500000 
865 1 0.646555 0.292891 0.500000 
866 1 0.656213 0.310172 0.500000 
867 1 0.666542 0.293268 0.500000 
868 1 0.676218 0.310526 0.500000 
869 1 0.686538 0.293617 0.500000 
870 1 0.696224 0.310861 0.500000 
871 1 0.706536 0.293947 0.500000 
872 1 0.716238 0.311164 0.500000 
873 1 0.726539 0.294245 0.500000 
874 1 0.736255 0.311446 0.500000 
875 1 0.746546 0.294523 0.500000 
876 1 0.756274 0.311709 0.500000 
877 1 0.766558 0.294786 0.500000 
878 1 0.776299 0.311953 0.500000 
879 1 0.786571 0.295024 0.500000 
880 1 0.796327 0.312177 0.500000 
881 1 0.806589 0.295245 0.500000 