ITEM: TIMESTEP
1600
ITEM: NUMBER OF ATOMS
2850
ITEM: BOX BOUNDS ss ss pp
-28.0536 28.3253 
-28.9988 28.9984 
-0.5 0.5 
ITEM: ATOMS id type xs ys zs
1 1 0.012661 0.000000 0.500000 
2 1 0.022340 0.017073 0.500000 
3 1 0.032688 0.000597 0.500000 
4 1 0.042369 0.017677 0.500000 
5 1 0.052715 0.001202 0.500000 
6 1 0.062397 0.018289 0.500000 
7 1 0.072742 0.001814 0.500000 
8 1 0.082426 0.018911 0.500000 
9 1 0.092767 0.002433 0.500000 
10 1 0.102455 0.019539 0.500000 
11 1 0.112794 0.003060 0.500000 
12 1 0.122484 0.020177 0.500000 
13 1 0.132817 0.003697 0.500000 
14 1 0.142511 0.020822 0.500000 
15 1 0.152841 0.004338 0.500000 
16 1 0.162536 0.021475 0.500000 
17 1 0.172861 0.004988 0.500000 
18 1 0.182559 0.022136 0.500000 
19 1 0.192879 0.005643 0.500000 
20 1 0.202579 0.022803 0.500000 
21 1 0.212895 0.006305 0.500000 
22 1 0.222596 0.023475 0.500000 
23 1 0.232906 0.006973 0.500000 
24 1 0.242610 0.024155 0.500000 
25 1 0.252912 0.007645 0.500000 
26 1 0.262618 0.024839 0.500000 
27 1 0.272914 0.008319 0.500000 
28 1 0.282622 0.025527 0.500000 
29 1 0.292911 0.008997 0.500000 
30 1 0.302619 0.026217 0.500000 
31 1 0.312901 0.009676 0.500000 
32 1 0.322610 0.026908 0.500000 
33 1 0.332885 0.010356 0.500000 
34 1 0.342593 0.027600 0.500000 
35 1 0.352861 0.011033 0.500000 
36 1 0.362570 0.028289 0.500000 
37 1 0.372830 0.011707 0.500000 
38 1 0.382537 0.028974 0.500000 
39 1 0.392791 0.012376 0.500000 
40 1 0.402497 0.029655 0.500000 
41 1 0.412744 0.013039 0.500000 
42 1 0.422448 0.030326 0.500000 
43 1 0.432688 0.013694 0.500000 
44 1 0.442390 0.030989 0.500000 
45 1 0.452624 0.014337 0.500000 
46 1 0.462324 0.031639 0.500000 
47 1 0.472553 0.014968 0.500000 
48 1 0.482250 0.032276 0.500000 
49 1 0.492474 0.015584 0.500000 
50 1 0.502167 0.032896 0.500000 
51 1 0.512388 0.016184 0.500000 
52 1 0.522078 0.033498 0.500000 
53 1 0.532295 0.016766 0.500000 
54 1 0.541983 0.034081 0.500000 
55 1 0.552198 0.017330 0.500000 
56 1 0.561882 0.034643 0.500000 
57 1 0.572095 0.017873 0.500000 
58 1 0.581777 0.035184 0.500000 
59 1 0.591989 0.018396 0.500000 
60 1 0.601668 0.035702 0.500000 
61 1 0.611880 0.018896 0.500000 
62 1 0.621558 0.036195 0.500000 
63 1 0.631769 0.019373 0.500000 
64 1 0.641446 0.036666 0.500000 
65 1 0.651657 0.019829 0.500000 
66 1 0.661334 0.037110 0.500000 
67 1 0.671546 0.020261 0.500000 
68 1 0.681223 0.037533 0.500000 
69 1 0.691436 0.020670 0.500000 
70 1 0.701115 0.037931 0.500000 
71 1 0.711328 0.021058 0.500000 
72 1 0.721007 0.038307 0.500000 
73 1 0.731222 0.021423 0.500000 
74 1 0.740905 0.038660 0.500000 
75 1 0.751120 0.021768 0.500000 
76 1 0.760806 0.038993 0.500000 
77 1 0.771021 0.022094 0.500000 
78 1 0.780711 0.039305 0.500000 
79 1 0.790927 0.022399 0.500000 
80 1 0.800620 0.039597 0.500000 
81 1 0.810837 0.022687 0.500000 
82 1 0.820536 0.039873 0.500000 
83 1 0.830751 0.022958 0.500000 
84 1 0.840456 0.040130 0.500000 
85 1 0.850671 0.023211 0.500000 
86 1 0.860382 0.040369 0.500000 
87 1 0.870595 0.023449 0.500000 
88 1 0.880312 0.040595 0.500000 
89 1 0.890525 0.023674 0.500000 
90 1 0.900248 0.040807 0.500000 
91 1 0.910459 0.023884 0.500000 
92 1 0.920188 0.041005 0.500000 
93 1 0.930398 0.024080 0.500000 
94 1 0.940134 0.041192 0.500000 
95 1 0.950341 0.024267 0.500000 
96 1 0.960084 0.041368 0.500000 
97 1 0.970290 0.024443 0.500000 
98 1 0.980040 0.041531 0.500000 
99 1 0.990243 0.024606 0.500000 
100 1 1.000000 0.041686 0.500000 
101 1 0.011983 0.033545 0.500000 
102 1 0.021650 0.050615 0.500000 
103 1 0.032014 0.034148 0.500000 
104 1 0.041680 0.051227 0.500000 
105 1 0.052044 0.034760 0.500000 
106 1 0.061715 0.051847 0.500000 
107 1 0.072075 0.035381 0.500000 
108 1 0.081759 0.052489 0.500000 
109 1 0.092107 0.036012 0.500000 
110 1 0.101787 0.053146 0.500000 
111 1 0.112138 0.036650 0.500000 
112 1 0.121836 0.053793 0.500000 
113 1 0.132168 0.037297 0.500000 
114 1 0.141875 0.054463 0.500000 
115 1 0.152197 0.037952 0.500000 
116 1 0.161882 0.055122 0.500000 
117 1 0.172226 0.038617 0.500000 
118 1 0.181913 0.055787 0.500000 
119 1 0.192251 0.039288 0.500000 
120 1 0.201962 0.056476 0.500000 
121 1 0.212274 0.039967 0.500000 
122 1 0.221989 0.057174 0.500000 
123 1 0.232293 0.040654 0.500000 
124 1 0.241978 0.057862 0.500000 
125 1 0.252309 0.041345 0.500000 
126 1 0.261964 0.058593 0.500000 
127 1 0.272318 0.042042 0.500000 
128 1 0.281963 0.059314 0.500000 
129 1 0.292324 0.042743 0.500000 
130 1 0.301958 0.060017 0.500000 
131 1 0.312323 0.043447 0.500000 
132 1 0.321957 0.060733 0.500000 
133 1 0.332314 0.044150 0.500000 
134 1 0.341926 0.061439 0.500000 
135 1 0.352297 0.044856 0.500000 
136 1 0.361902 0.062165 0.500000 
137 1 0.372273 0.045557 0.500000 
138 1 0.381876 0.062848 0.500000 
139 1 0.392240 0.046254 0.500000 
140 1 0.401834 0.063528 0.500000 
141 1 0.412198 0.046944 0.500000 
142 1 0.421792 0.064228 0.500000 
143 1 0.432147 0.047626 0.500000 
144 1 0.441737 0.064931 0.500000 
145 1 0.452087 0.048297 0.500000 
146 1 0.461655 0.065603 0.500000 
147 1 0.472018 0.048954 0.500000 
148 1 0.481595 0.066266 0.500000 
149 1 0.491940 0.049595 0.500000 
150 1 0.501537 0.066938 0.500000 
151 1 0.511855 0.050220 0.500000 
152 1 0.521426 0.067556 0.500000 
153 1 0.531762 0.050823 0.500000 
154 1 0.541306 0.068153 0.500000 
155 1 0.551663 0.051406 0.500000 
156 1 0.561208 0.068737 0.500000 
157 1 0.571560 0.051966 0.500000 
158 1 0.581129 0.069253 0.500000 
159 1 0.591452 0.052503 0.500000 
160 1 0.601027 0.069785 0.500000 
161 1 0.611341 0.053013 0.500000 
162 1 0.620914 0.070279 0.500000 
163 1 0.631230 0.053499 0.500000 
164 1 0.640814 0.070724 0.500000 
165 1 0.651117 0.053960 0.500000 
166 1 0.660707 0.071175 0.500000 
167 1 0.671006 0.054396 0.500000 
168 1 0.680592 0.071618 0.500000 
169 1 0.690897 0.054806 0.500000 
170 1 0.700505 0.072018 0.500000 
171 1 0.710789 0.055192 0.500000 
172 1 0.720407 0.072385 0.500000 
173 1 0.730685 0.055554 0.500000 
174 1 0.740310 0.072706 0.500000 
175 1 0.750586 0.055894 0.500000 
176 1 0.760252 0.073014 0.500000 
177 1 0.770490 0.056213 0.500000 
178 1 0.780195 0.073359 0.500000 
179 1 0.790400 0.056511 0.500000 
180 1 0.800117 0.073653 0.500000 
181 1 0.810316 0.056789 0.500000 
182 1 0.820058 0.073919 0.500000 
183 1 0.830238 0.057049 0.500000 
184 1 0.840004 0.074152 0.500000 
185 1 0.850164 0.057294 0.500000 
186 1 0.859949 0.074414 0.500000 
187 1 0.870095 0.057522 0.500000 
188 1 0.879880 0.074643 0.500000 
189 1 0.890032 0.057734 0.500000 
190 1 0.899782 0.074826 0.500000 
191 1 0.909975 0.057934 0.500000 
192 1 0.919725 0.075032 0.500000 
193 1 0.929922 0.058120 0.500000 
194 1 0.939691 0.075205 0.500000 
195 1 0.949875 0.058294 0.500000 
196 1 0.959621 0.075390 0.500000 
197 1 0.969833 0.058458 0.500000 
198 1 0.979588 0.075542 0.500000 
199 1 0.989796 0.058613 0.500000 
200 1 0.999557 0.075685 0.500000 
201 1 0.011275 0.067077 0.500000 
202 1 0.020924 0.084144 0.500000 
203 1 0.031308 0.067688 0.500000 
204 1 0.040959 0.084763 0.500000 
205 1 0.051342 0.068307 0.500000 
206 1 0.060994 0.085390 0.500000 
207 1 0.071376 0.068936 0.500000 
208 1 0.081040 0.086046 0.500000 
209 1 0.091449 0.069613 0.500000 
210 1 0.101114 0.086711 0.500000 
211 1 0.111528 0.070270 0.500000 
212 1 0.121195 0.087395 0.500000 
213 1 0.131575 0.070948 0.500000 
214 1 0.141262 0.088097 0.500000 
215 1 0.151593 0.071633 0.500000 
216 1 0.161311 0.088768 0.500000 
217 1 0.171604 0.072269 0.500000 
218 1 0.181313 0.089442 0.500000 
219 1 0.191630 0.072954 0.500000 
220 1 0.201314 0.090165 0.500000 
221 1 0.211665 0.073681 0.500000 
222 1 0.221346 0.090912 0.500000 
223 1 0.231687 0.074408 0.500000 
224 1 0.241363 0.091664 0.500000 
225 1 0.251658 0.075129 0.500000 
226 1 0.261345 0.092396 0.500000 
227 1 0.271628 0.075853 0.500000 
228 1 0.281325 0.093091 0.500000 
229 1 0.291648 0.076566 0.500000 
230 1 0.301324 0.093806 0.500000 
231 1 0.311650 0.077278 0.500000 
232 1 0.321302 0.094559 0.500000 
233 1 0.331601 0.078011 0.500000 
234 1 0.341248 0.095286 0.500000 
235 1 0.351544 0.078704 0.500000 
236 1 0.361195 0.096001 0.500000 
237 1 0.371537 0.079441 0.500000 
238 1 0.381182 0.096754 0.500000 
239 1 0.391508 0.080151 0.500000 
240 1 0.401136 0.097496 0.500000 
241 1 0.411438 0.080846 0.500000 
242 1 0.421062 0.098193 0.500000 
243 1 0.431390 0.081551 0.500000 
244 1 0.440996 0.098876 0.500000 
245 1 0.451329 0.082252 0.500000 
246 1 0.460921 0.099569 0.500000 
247 1 0.471239 0.082906 0.500000 
248 1 0.480829 0.100238 0.500000 
249 1 0.491153 0.083570 0.500000 
250 1 0.500732 0.100906 0.500000 
251 1 0.511072 0.084240 0.500000 
252 1 0.520650 0.101564 0.500000 
253 1 0.530978 0.084848 0.500000 
254 1 0.540567 0.102164 0.500000 
255 1 0.550885 0.085430 0.500000 
256 1 0.560472 0.102727 0.500000 
257 1 0.570788 0.085977 0.500000 
258 1 0.580372 0.103284 0.500000 
259 1 0.590679 0.086529 0.500000 
260 1 0.600276 0.103813 0.500000 
261 1 0.610583 0.087037 0.500000 
262 1 0.620167 0.104298 0.500000 
263 1 0.630488 0.087513 0.500000 
264 1 0.640090 0.104755 0.500000 
265 1 0.650388 0.087969 0.500000 
266 1 0.660008 0.105202 0.500000 
267 1 0.670296 0.088410 0.500000 
268 1 0.679931 0.105611 0.500000 
269 1 0.690236 0.088815 0.500000 
270 1 0.699873 0.105996 0.500000 
271 1 0.710176 0.089196 0.500000 
272 1 0.719823 0.106374 0.500000 
273 1 0.730100 0.089545 0.500000 
274 1 0.739794 0.106700 0.500000 
275 1 0.750039 0.089849 0.500000 
276 1 0.759750 0.107024 0.500000 
277 1 0.769983 0.090177 0.500000 
278 1 0.779675 0.107342 0.500000 
279 1 0.789942 0.090498 0.500000 
280 1 0.799623 0.107632 0.500000 
281 1 0.809892 0.090767 0.500000 
282 1 0.819579 0.107901 0.500000 
283 1 0.829850 0.091053 0.500000 
284 1 0.839544 0.108180 0.500000 
285 1 0.849788 0.091298 0.500000 
286 1 0.859488 0.108430 0.500000 
287 1 0.869715 0.091530 0.500000 
288 1 0.879414 0.108661 0.500000 
289 1 0.889628 0.091760 0.500000 
290 1 0.899346 0.108831 0.500000 
291 1 0.909556 0.091924 0.500000 
292 1 0.919280 0.109011 0.500000 
293 1 0.929500 0.092103 0.500000 
294 1 0.939213 0.109223 0.500000 
295 1 0.949407 0.092323 0.500000 
296 1 0.959160 0.109410 0.500000 
297 1 0.969375 0.092475 0.500000 
298 1 0.979136 0.109550 0.500000 
299 1 0.989349 0.092617 0.500000 
300 1 0.999117 0.109681 0.500000 
301 1 0.010532 0.100598 0.500000 
302 1 0.020165 0.117663 0.500000 
303 1 0.030566 0.101214 0.500000 
304 1 0.040201 0.118287 0.500000 
305 1 0.050602 0.101839 0.500000 
306 1 0.060239 0.118920 0.500000 
307 1 0.070640 0.102476 0.500000 
308 1 0.080277 0.119568 0.500000 
309 1 0.090709 0.103153 0.500000 
310 1 0.100370 0.120244 0.500000 
311 1 0.110790 0.103825 0.500000 
312 1 0.120450 0.120967 0.500000 
313 1 0.130853 0.104528 0.500000 
314 1 0.140529 0.121660 0.500000 
315 1 0.150930 0.105226 0.500000 
316 1 0.160597 0.122379 0.500000 
317 1 0.170972 0.105935 0.500000 
318 1 0.180634 0.123115 0.500000 
319 1 0.190971 0.106653 0.500000 
320 1 0.200640 0.123847 0.500000 
321 1 0.210982 0.107379 0.500000 
322 1 0.220646 0.124609 0.500000 
323 1 0.231001 0.108149 0.500000 
324 1 0.240660 0.125384 0.500000 
325 1 0.251011 0.108906 0.500000 
326 1 0.260686 0.126134 0.500000 
327 1 0.271020 0.109631 0.500000 
328 1 0.280675 0.126938 0.500000 
329 1 0.291003 0.110365 0.500000 
330 1 0.300639 0.127708 0.500000 
331 1 0.310974 0.111121 0.500000 
332 1 0.320602 0.128450 0.500000 
333 1 0.330937 0.111861 0.500000 
334 1 0.340560 0.129178 0.500000 
335 1 0.350900 0.112597 0.500000 
336 1 0.360525 0.129910 0.500000 
337 1 0.370859 0.113349 0.500000 
338 1 0.380477 0.130697 0.500000 
339 1 0.390791 0.114095 0.500000 
340 1 0.400401 0.131426 0.500000 
341 1 0.410728 0.114826 0.500000 
342 1 0.420344 0.132130 0.500000 
343 1 0.430672 0.115522 0.500000 
344 1 0.440267 0.132888 0.500000 
345 1 0.450571 0.116213 0.500000 
346 1 0.460164 0.133620 0.500000 
347 1 0.470489 0.116924 0.500000 
348 1 0.480087 0.134319 0.500000 
349 1 0.490426 0.117624 0.500000 
350 1 0.500016 0.135020 0.500000 
351 1 0.510348 0.118292 0.500000 
352 1 0.519956 0.135673 0.500000 
353 1 0.530284 0.118948 0.500000 
354 1 0.539903 0.136289 0.500000 
355 1 0.550211 0.119522 0.500000 
356 1 0.559825 0.136858 0.500000 
357 1 0.570127 0.120077 0.500000 
358 1 0.579740 0.137425 0.500000 
359 1 0.590037 0.120626 0.500000 
360 1 0.599655 0.137944 0.500000 
361 1 0.609927 0.121124 0.500000 
362 1 0.619587 0.138382 0.500000 
363 1 0.629835 0.121553 0.500000 
364 1 0.639517 0.138833 0.500000 
365 1 0.649754 0.122005 0.500000 
366 1 0.659456 0.139265 0.500000 
367 1 0.669687 0.122430 0.500000 
368 1 0.679387 0.139672 0.500000 
369 1 0.689614 0.122833 0.500000 
370 1 0.699331 0.140045 0.500000 
371 1 0.709539 0.123201 0.500000 
372 1 0.719274 0.140386 0.500000 
373 1 0.729505 0.123531 0.500000 
374 1 0.739238 0.140710 0.500000 
375 1 0.749476 0.123857 0.500000 
376 1 0.759192 0.141051 0.500000 
377 1 0.769424 0.124207 0.500000 
378 1 0.779146 0.141351 0.500000 
379 1 0.789388 0.124496 0.500000 
380 1 0.799107 0.141636 0.500000 
381 1 0.809353 0.124777 0.500000 
382 1 0.819073 0.141904 0.500000 
383 1 0.829303 0.125033 0.500000 
384 1 0.839016 0.142172 0.500000 
385 1 0.849243 0.125294 0.500000 
386 1 0.858959 0.142404 0.500000 
387 1 0.869189 0.125534 0.500000 
388 1 0.878915 0.142617 0.500000 
389 1 0.889148 0.125752 0.500000 
390 1 0.898860 0.142856 0.500000 
391 1 0.909071 0.125930 0.500000 
392 1 0.918791 0.143063 0.500000 
393 1 0.928995 0.126130 0.500000 
394 1 0.938726 0.143267 0.500000 
395 1 0.948940 0.126349 0.500000 
396 1 0.958701 0.143428 0.500000 
397 1 0.968919 0.126487 0.500000 
398 1 0.978689 0.143555 0.500000 
399 1 0.988905 0.126616 0.500000 
400 1 0.998682 0.143674 0.500000 
401 1 0.009754 0.134110 0.500000 
402 1 0.019367 0.151171 0.500000 
403 1 0.029790 0.134729 0.500000 
404 1 0.039403 0.151799 0.500000 
405 1 0.049825 0.135360 0.500000 
406 1 0.059442 0.152437 0.500000 
407 1 0.069865 0.136003 0.500000 
408 1 0.079522 0.153097 0.500000 
409 1 0.089911 0.136648 0.500000 
410 1 0.099585 0.153758 0.500000 
411 1 0.109999 0.137361 0.500000 
412 1 0.119675 0.154440 0.500000 
413 1 0.130117 0.138070 0.500000 
414 1 0.139734 0.155184 0.500000 
415 1 0.150187 0.138797 0.500000 
416 1 0.159781 0.155931 0.500000 
417 1 0.170221 0.139533 0.500000 
418 1 0.179811 0.156711 0.500000 
419 1 0.190229 0.140285 0.500000 
420 1 0.199825 0.157501 0.500000 
421 1 0.210255 0.141053 0.500000 
422 1 0.219850 0.158304 0.500000 
423 1 0.230300 0.141857 0.500000 
424 1 0.239895 0.159115 0.500000 
425 1 0.250325 0.142631 0.500000 
426 1 0.259899 0.159939 0.500000 
427 1 0.270298 0.143440 0.500000 
428 1 0.279885 0.160734 0.500000 
429 1 0.290279 0.144254 0.500000 
430 1 0.299861 0.161539 0.500000 
431 1 0.310235 0.145028 0.500000 
432 1 0.319815 0.162321 0.500000 
433 1 0.330195 0.145753 0.500000 
434 1 0.339783 0.163061 0.500000 
435 1 0.350172 0.146490 0.500000 
436 1 0.359764 0.163823 0.500000 
437 1 0.370119 0.147248 0.500000 
438 1 0.379725 0.164587 0.500000 
439 1 0.390085 0.148026 0.500000 
440 1 0.399674 0.165384 0.500000 
441 1 0.410025 0.148757 0.500000 
442 1 0.419611 0.166156 0.500000 
443 1 0.429929 0.149516 0.500000 
444 1 0.439547 0.166891 0.500000 
445 1 0.449848 0.150282 0.500000 
446 1 0.459518 0.167605 0.500000 
447 1 0.469807 0.150990 0.500000 
448 1 0.479466 0.168341 0.500000 
449 1 0.489736 0.151699 0.500000 
450 1 0.499409 0.169034 0.500000 
451 1 0.509658 0.152350 0.500000 
452 1 0.519351 0.169700 0.500000 
453 1 0.529596 0.152997 0.500000 
454 1 0.539277 0.170369 0.500000 
455 1 0.549519 0.153611 0.500000 
456 1 0.559195 0.170968 0.500000 
457 1 0.569432 0.154189 0.500000 
458 1 0.579129 0.171521 0.500000 
459 1 0.589361 0.154720 0.500000 
460 1 0.599067 0.172008 0.500000 
461 1 0.609311 0.155197 0.500000 
462 1 0.619017 0.172480 0.500000 
463 1 0.629254 0.155661 0.500000 
464 1 0.638962 0.172921 0.500000 
465 1 0.649202 0.156099 0.500000 
466 1 0.658889 0.173374 0.500000 
467 1 0.669142 0.156536 0.500000 
468 1 0.678855 0.173757 0.500000 
469 1 0.689093 0.156890 0.500000 
470 1 0.698820 0.174126 0.500000 
471 1 0.709041 0.157249 0.500000 
472 1 0.718792 0.174442 0.500000 
473 1 0.729008 0.157572 0.500000 
474 1 0.738749 0.174777 0.500000 
475 1 0.748959 0.157897 0.500000 
476 1 0.758690 0.175078 0.500000 
477 1 0.768917 0.158230 0.500000 
478 1 0.778647 0.175410 0.500000 
479 1 0.788854 0.158501 0.500000 
480 1 0.798576 0.175664 0.500000 
481 1 0.808797 0.158764 0.500000 
482 1 0.818516 0.175919 0.500000 
483 1 0.828758 0.159049 0.500000 
484 1 0.838479 0.176194 0.500000 
485 1 0.848721 0.159301 0.500000 
486 1 0.858441 0.176419 0.500000 
487 1 0.868671 0.159509 0.500000 
488 1 0.878381 0.176639 0.500000 
489 1 0.888605 0.159728 0.500000 
490 1 0.898325 0.176853 0.500000 
491 1 0.908552 0.159969 0.500000 
492 1 0.918296 0.177087 0.500000 
493 1 0.928505 0.160197 0.500000 
494 1 0.938274 0.177286 0.500000 
495 1 0.948477 0.160370 0.500000 
496 1 0.958249 0.177440 0.500000 
497 1 0.968470 0.160496 0.500000 
498 1 0.978251 0.177553 0.500000 
499 1 0.988467 0.160611 0.500000 
500 1 0.998258 0.177659 0.500000 
501 1 0.008938 0.167610 0.500000 
502 1 0.018532 0.184668 0.500000 
503 1 0.028972 0.168234 0.500000 
504 1 0.038566 0.185299 0.500000 
505 1 0.049008 0.168868 0.500000 
506 1 0.058602 0.185942 0.500000 
507 1 0.069047 0.169517 0.500000 
508 1 0.078694 0.186584 0.500000 
509 1 0.089161 0.170178 0.500000 
510 1 0.098771 0.187273 0.500000 
511 1 0.109237 0.170849 0.500000 
512 1 0.118827 0.187991 0.500000 
513 1 0.129281 0.171574 0.500000 
514 1 0.138888 0.188736 0.500000 
515 1 0.149339 0.172326 0.500000 
516 1 0.158963 0.189523 0.500000 
517 1 0.169392 0.173114 0.500000 
518 1 0.178996 0.190355 0.500000 
519 1 0.189420 0.173942 0.500000 
520 1 0.199037 0.191169 0.500000 
521 1 0.209439 0.174756 0.500000 
522 1 0.219080 0.191978 0.500000 
523 1 0.229465 0.175558 0.500000 
524 1 0.239080 0.192808 0.500000 
525 1 0.249476 0.176393 0.500000 
526 1 0.259070 0.193681 0.500000 
527 1 0.269487 0.177225 0.500000 
528 1 0.279078 0.194526 0.500000 
529 1 0.289490 0.178033 0.500000 
530 1 0.299097 0.195355 0.500000 
531 1 0.309460 0.178850 0.500000 
532 1 0.319125 0.196145 0.500000 
533 1 0.329445 0.179602 0.500000 
534 1 0.339118 0.196911 0.500000 
535 1 0.349444 0.180371 0.500000 
536 1 0.359100 0.197695 0.500000 
537 1 0.369418 0.181156 0.500000 
538 1 0.379072 0.198519 0.500000 
539 1 0.389361 0.181969 0.500000 
540 1 0.399057 0.199327 0.500000 
541 1 0.409316 0.182754 0.500000 
542 1 0.419026 0.200085 0.500000 
543 1 0.429294 0.183508 0.500000 
544 1 0.438950 0.200900 0.500000 
545 1 0.449242 0.184243 0.500000 
546 1 0.458869 0.201692 0.500000 
547 1 0.469173 0.185010 0.500000 
548 1 0.478790 0.202436 0.500000 
549 1 0.489106 0.185746 0.500000 
550 1 0.498710 0.203182 0.500000 
551 1 0.509032 0.186443 0.500000 
552 1 0.518614 0.203891 0.500000 
553 1 0.528952 0.187143 0.500000 
554 1 0.538554 0.204518 0.500000 
555 1 0.548886 0.187770 0.500000 
556 1 0.558496 0.205109 0.500000 
557 1 0.568819 0.188335 0.500000 
558 1 0.578444 0.205650 0.500000 
559 1 0.588753 0.188851 0.500000 
560 1 0.598389 0.206120 0.500000 
561 1 0.608705 0.189302 0.500000 
562 1 0.618349 0.206579 0.500000 
563 1 0.628675 0.189743 0.500000 
564 1 0.638316 0.207027 0.500000 
565 1 0.648628 0.190187 0.500000 
566 1 0.658282 0.207459 0.500000 
567 1 0.668596 0.190611 0.500000 
568 1 0.678268 0.207848 0.500000 
569 1 0.688557 0.190989 0.500000 
570 1 0.698228 0.208203 0.500000 
571 1 0.708519 0.191333 0.500000 
572 1 0.718191 0.208521 0.500000 
573 1 0.728474 0.191657 0.500000 
574 1 0.738147 0.208844 0.500000 
575 1 0.748430 0.191959 0.500000 
576 1 0.758104 0.209140 0.500000 
577 1 0.768381 0.192257 0.500000 
578 1 0.778068 0.209434 0.500000 
579 1 0.788344 0.192578 0.500000 
580 1 0.798038 0.209740 0.500000 
581 1 0.808278 0.192838 0.500000 
582 1 0.817986 0.209998 0.500000 
583 1 0.828228 0.193079 0.500000 
584 1 0.837945 0.210229 0.500000 
585 1 0.848200 0.193324 0.500000 
586 1 0.857918 0.210486 0.500000 
587 1 0.868149 0.193566 0.500000 
588 1 0.877896 0.210697 0.500000 
589 1 0.888096 0.193762 0.500000 
590 1 0.897854 0.210880 0.500000 
591 1 0.908067 0.193967 0.500000 
592 1 0.917820 0.211070 0.500000 
593 1 0.928059 0.194180 0.500000 
594 1 0.937800 0.211297 0.500000 
595 1 0.948021 0.194385 0.500000 
596 1 0.957807 0.211443 0.500000 
597 1 0.968031 0.194496 0.500000 
598 1 0.977825 0.211543 0.500000 
599 1 0.988043 0.194599 0.500000 
600 1 0.997847 0.211634 0.500000 
601 1 0.008083 0.201103 0.500000 
602 1 0.017654 0.218157 0.500000 
603 1 0.028113 0.201727 0.500000 
604 1 0.037684 0.218790 0.500000 
605 1 0.048147 0.202367 0.500000 
606 1 0.057718 0.219436 0.500000 
607 1 0.068185 0.203017 0.500000 
608 1 0.077773 0.220106 0.500000 
609 1 0.088264 0.203692 0.500000 
610 1 0.097840 0.220794 0.500000 
611 1 0.108338 0.204391 0.500000 
612 1 0.117902 0.221521 0.500000 
613 1 0.128419 0.205148 0.500000 
614 1 0.137990 0.222278 0.500000 
615 1 0.148499 0.205917 0.500000 
616 1 0.158074 0.223112 0.500000 
617 1 0.168545 0.206754 0.500000 
618 1 0.178136 0.223938 0.500000 
619 1 0.188593 0.207551 0.500000 
620 1 0.198170 0.224760 0.500000 
621 1 0.208647 0.208374 0.500000 
622 1 0.218206 0.225626 0.500000 
623 1 0.228675 0.209229 0.500000 
624 1 0.238254 0.226518 0.500000 
625 1 0.248662 0.210092 0.500000 
626 1 0.258263 0.227408 0.500000 
627 1 0.268687 0.210981 0.500000 
628 1 0.278277 0.228295 0.500000 
629 1 0.288711 0.211848 0.500000 
630 1 0.298305 0.229138 0.500000 
631 1 0.308718 0.212663 0.500000 
632 1 0.318311 0.229953 0.500000 
633 1 0.328717 0.213444 0.500000 
634 1 0.338288 0.230776 0.500000 
635 1 0.348708 0.214253 0.500000 
636 1 0.358307 0.231611 0.500000 
637 1 0.368695 0.215059 0.500000 
638 1 0.378320 0.232443 0.500000 
639 1 0.388706 0.215860 0.500000 
640 1 0.398292 0.233281 0.500000 
641 1 0.408689 0.216684 0.500000 
642 1 0.418212 0.234154 0.500000 
643 1 0.428595 0.217541 0.500000 
644 1 0.438161 0.234930 0.500000 
645 1 0.448517 0.218322 0.500000 
646 1 0.458115 0.235719 0.500000 
647 1 0.468458 0.219080 0.500000 
648 1 0.478014 0.236519 0.500000 
649 1 0.488362 0.219837 0.500000 
650 1 0.497941 0.237248 0.500000 
651 1 0.508279 0.220580 0.500000 
652 1 0.517882 0.237937 0.500000 
653 1 0.528216 0.221208 0.500000 
654 1 0.537791 0.238592 0.500000 
655 1 0.548161 0.221838 0.500000 
656 1 0.557762 0.239179 0.500000 
657 1 0.568134 0.222417 0.500000 
658 1 0.577765 0.239717 0.500000 
659 1 0.588110 0.222923 0.500000 
660 1 0.597738 0.240233 0.500000 
661 1 0.608062 0.223403 0.500000 
662 1 0.617701 0.240678 0.500000 
663 1 0.628015 0.223864 0.500000 
664 1 0.637659 0.241130 0.500000 
665 1 0.647965 0.224303 0.500000 
666 1 0.657620 0.241543 0.500000 
667 1 0.667955 0.224701 0.500000 
668 1 0.677604 0.241942 0.500000 
669 1 0.687948 0.225085 0.500000 
670 1 0.697610 0.242277 0.500000 
671 1 0.707925 0.225395 0.500000 
672 1 0.717585 0.242581 0.500000 
673 1 0.727887 0.225704 0.500000 
674 1 0.737562 0.242862 0.500000 
675 1 0.747856 0.226013 0.500000 
676 1 0.757539 0.243195 0.500000 
677 1 0.767815 0.226313 0.500000 
678 1 0.777521 0.243477 0.500000 
679 1 0.787791 0.226605 0.500000 
680 1 0.797501 0.243778 0.500000 
681 1 0.807771 0.226904 0.500000 
682 1 0.817499 0.244066 0.500000 
683 1 0.827725 0.227146 0.500000 
684 1 0.837465 0.244298 0.500000 
685 1 0.847667 0.227397 0.500000 
686 1 0.857442 0.244521 0.500000 
687 1 0.867649 0.227619 0.500000 
688 1 0.877433 0.244720 0.500000 
689 1 0.887638 0.227798 0.500000 
690 1 0.897394 0.244919 0.500000 
691 1 0.907601 0.228008 0.500000 
692 1 0.917362 0.245105 0.500000 
693 1 0.927574 0.228184 0.500000 
694 1 0.937344 0.245293 0.500000 
695 1 0.947580 0.228392 0.500000 
696 1 0.957383 0.245436 0.500000 
697 1 0.967605 0.228489 0.500000 
698 1 0.977417 0.245522 0.500000 
699 1 0.987634 0.228577 0.500000 
700 1 0.997455 0.245600 0.500000 
701 1 0.007189 0.234587 0.500000 
702 1 0.016737 0.251640 0.500000 
703 1 0.027214 0.235215 0.500000 
704 1 0.036760 0.252274 0.500000 
705 1 0.047243 0.235854 0.500000 
706 1 0.056787 0.252921 0.500000 
707 1 0.067275 0.236508 0.500000 
708 1 0.076843 0.253604 0.500000 
709 1 0.087353 0.237205 0.500000 
710 1 0.096909 0.254314 0.500000 
711 1 0.107413 0.237914 0.500000 
712 1 0.116974 0.255038 0.500000 
713 1 0.127477 0.238645 0.500000 
714 1 0.137015 0.255806 0.500000 
715 1 0.147544 0.239424 0.500000 
716 1 0.157064 0.256594 0.500000 
717 1 0.167638 0.240288 0.500000 
718 1 0.177162 0.257467 0.500000 
719 1 0.187699 0.241138 0.500000 
720 1 0.197231 0.258363 0.500000 
721 1 0.207746 0.242016 0.500000 
722 1 0.217284 0.259277 0.500000 
723 1 0.227782 0.242903 0.500000 
724 1 0.237308 0.260203 0.500000 
725 1 0.247816 0.243843 0.500000 
726 1 0.257348 0.261127 0.500000 
727 1 0.267848 0.244729 0.500000 
728 1 0.277401 0.262013 0.500000 
729 1 0.287876 0.245580 0.500000 
730 1 0.297446 0.262884 0.500000 
731 1 0.307887 0.246415 0.500000 
732 1 0.317497 0.263750 0.500000 
733 1 0.327915 0.247271 0.500000 
734 1 0.337536 0.264631 0.500000 
735 1 0.347947 0.248137 0.500000 
736 1 0.357536 0.265526 0.500000 
737 1 0.367951 0.249012 0.500000 
738 1 0.377530 0.266413 0.500000 
739 1 0.387921 0.249863 0.500000 
740 1 0.397512 0.267280 0.500000 
741 1 0.407875 0.250734 0.500000 
742 1 0.417491 0.268135 0.500000 
743 1 0.427853 0.251550 0.500000 
744 1 0.437423 0.269028 0.500000 
745 1 0.447793 0.252366 0.500000 
746 1 0.457336 0.269920 0.500000 
747 1 0.467706 0.253243 0.500000 
748 1 0.477286 0.270682 0.500000 
749 1 0.487648 0.253977 0.500000 
750 1 0.497210 0.271459 0.500000 
751 1 0.507587 0.254717 0.500000 
752 1 0.517153 0.272156 0.500000 
753 1 0.527511 0.255386 0.500000 
754 1 0.537105 0.272723 0.500000 
755 1 0.547470 0.255968 0.500000 
756 1 0.557050 0.273318 0.500000 
757 1 0.567415 0.256516 0.500000 
758 1 0.577010 0.273840 0.500000 
759 1 0.587376 0.257033 0.500000 
760 1 0.596967 0.274340 0.500000 
761 1 0.607370 0.257527 0.500000 
762 1 0.616947 0.274835 0.500000 
763 1 0.627336 0.257977 0.500000 
764 1 0.636946 0.275262 0.500000 
765 1 0.647297 0.258394 0.500000 
766 1 0.656944 0.275646 0.500000 
767 1 0.667277 0.258782 0.500000 
768 1 0.676950 0.275995 0.500000 
769 1 0.687275 0.259127 0.500000 
770 1 0.696943 0.276343 0.500000 
771 1 0.707250 0.259467 0.500000 
772 1 0.716932 0.276631 0.500000 
773 1 0.727243 0.259746 0.500000 
774 1 0.736895 0.276938 0.500000 
775 1 0.747223 0.260050 0.500000 
776 1 0.756903 0.277208 0.500000 
777 1 0.767230 0.260352 0.500000 
778 1 0.776930 0.277515 0.500000 
779 1 0.787210 0.260656 0.500000 
780 1 0.796951 0.277818 0.500000 
781 1 0.807180 0.260934 0.500000 
782 1 0.816946 0.278086 0.500000 
783 1 0.827169 0.261207 0.500000 
784 1 0.836951 0.278298 0.500000 
785 1 0.847183 0.261402 0.500000 
786 1 0.856953 0.278480 0.500000 
787 1 0.867223 0.261601 0.500000 
788 1 0.876962 0.278708 0.500000 
789 1 0.887223 0.261839 0.500000 
790 1 0.896970 0.278944 0.500000 
791 1 0.907168 0.262027 0.500000 
792 1 0.916951 0.279109 0.500000 
793 1 0.927159 0.262187 0.500000 
794 1 0.936965 0.279277 0.500000 
795 1 0.947159 0.262387 0.500000 
796 1 0.956982 0.279417 0.500000 
797 1 0.967200 0.262468 0.500000 
798 1 0.977036 0.279488 0.500000 
799 1 0.987245 0.262544 0.500000 
800 1 0.997089 0.279555 0.500000 
801 1 0.006256 0.268068 0.500000 
802 1 0.015779 0.285121 0.500000 
803 1 0.026272 0.268696 0.500000 
804 1 0.035792 0.285753 0.500000 
805 1 0.046292 0.269335 0.500000 
806 1 0.055810 0.286400 0.500000 
807 1 0.066319 0.269991 0.500000 
808 1 0.075865 0.287096 0.500000 
809 1 0.086366 0.270697 0.500000 
810 1 0.095902 0.287787 0.500000 
811 1 0.106434 0.271424 0.500000 
812 1 0.115952 0.288548 0.500000 
813 1 0.126493 0.272196 0.500000 
814 1 0.136009 0.289341 0.500000 
815 1 0.146556 0.272974 0.500000 
816 1 0.156074 0.290125 0.500000 
817 1 0.166612 0.273778 0.500000 
818 1 0.176133 0.290980 0.500000 
819 1 0.186670 0.274681 0.500000 
820 1 0.196186 0.291910 0.500000 
821 1 0.206723 0.275601 0.500000 
822 1 0.216234 0.292859 0.500000 
823 1 0.226764 0.276540 0.500000 
824 1 0.236283 0.293822 0.500000 
825 1 0.246808 0.277478 0.500000 
826 1 0.256347 0.294752 0.500000 
827 1 0.266881 0.278401 0.500000 
828 1 0.276432 0.295703 0.500000 
829 1 0.286959 0.279330 0.500000 
830 1 0.296511 0.296627 0.500000 
831 1 0.307024 0.280216 0.500000 
832 1 0.316573 0.297520 0.500000 
833 1 0.327070 0.281105 0.500000 
834 1 0.336604 0.298451 0.500000 
835 1 0.347073 0.282013 0.500000 
836 1 0.356632 0.299386 0.500000 
837 1 0.367075 0.282910 0.500000 
838 1 0.376652 0.300359 0.500000 
839 1 0.387084 0.283828 0.500000 
840 1 0.396648 0.301313 0.500000 
841 1 0.407079 0.284742 0.500000 
842 1 0.416607 0.302294 0.500000 
843 1 0.427010 0.285672 0.500000 
844 1 0.436547 0.303190 0.500000 
845 1 0.446949 0.286558 0.500000 
846 1 0.456486 0.304020 0.500000 
847 1 0.466916 0.287372 0.500000 
848 1 0.476409 0.304927 0.500000 
849 1 0.486812 0.288179 0.500000 
850 1 0.496383 0.305659 0.500000 
851 1 0.506748 0.288901 0.500000 
852 1 0.516365 0.306337 0.500000 
853 1 0.526707 0.289525 0.500000 
854 1 0.536294 0.306995 0.500000 
855 1 0.546647 0.290131 0.500000 
856 1 0.556275 0.307515 0.500000 
857 1 0.566630 0.290661 0.500000 
858 1 0.576259 0.308033 0.500000 
859 1 0.586607 0.291171 0.500000 
860 1 0.596242 0.308511 0.500000 
861 1 0.606568 0.291674 0.500000 
862 1 0.616264 0.308958 0.500000 
863 1 0.626554 0.292095 0.500000 
864 1 0.636263 0.309361 0.500000 
865 1 0.646564 0.292509 0.500000 
866 1 0.656266 0.309745 0.500000 
867 1 0.666588 0.292888 0.500000 
868 1 0.676289 0.310099 0.500000 
869 1 0.686606 0.293216 0.500000 
870 1 0.696302 0.310398 0.500000 
871 1 0.706632 0.293527 0.500000 
872 1 0.716327 0.310712 0.500000 
873 1 0.726631 0.293831 0.500000 
874 1 0.736342 0.310994 0.500000 
875 1 0.746631 0.294099 0.500000 
876 1 0.756364 0.311281 0.500000 
877 1 0.766637 0.294381 0.500000 
878 1 0.776387 0.311541 0.500000 
879 1 0.786670 0.294672 0.500000 
880 1 0.796427 0.311812 0.500000 
881 1 0.806728 0.294952 0.500000 