ITEM: TIMESTEP
2400
ITEM: NUMBER OF ATOMS
2850
ITEM: BOX BOUNDS ss ss pp
-28.0536 28.3253 
-28.9988 28.9984 
-0.5 0.5 
ITEM: ATOMS id type xs ys zs
1 1 0.012661 0.000000 0.500000 
2 1 0.022340 0.017073 0.500000 
3 1 0.032688 0.000597 0.500000 
4 1 0.042369 0.017677 0.500000 
5 1 0.052715 0.001202 0.500000 
6 1 0.062397 0.018289 0.500000 
7 1 0.072742 0.001814 0.500000 
8 1 0.082426 0.018911 0.500000 
9 1 0.092767 0.002433 0.500000 
10 1 0.102455 0.019539 0.500000 
11 1 0.112794 0.003060 0.500000 
12 1 0.122484 0.020177 0.500000 
13 1 0.132817 0.003697 0.500000 
14 1 0.142511 0.020822 0.500000 
15 1 0.152841 0.004338 0.500000 
16 1 0.162536 0.021475 0.500000 
17 1 0.172861 0.004988 0.500000 
18 1 0.182559 0.022136 0.500000 
19 1 0.192879 0.005643 0.500000 
20 1 0.202579 0.022803 0.500000 
21 1 0.212895 0.006305 0.500000 
22 1 0.222596 0.023475 0.500000 
23 1 0.232906 0.006973 0.500000 
24 1 0.242610 0.024155 0.500000 
25 1 0.252912 0.007645 0.500000 
26 1 0.262618 0.024839 0.500000 
27 1 0.272914 0.008319 0.500000 
28 1 0.282622 0.025527 0.500000 
29 1 0.292911 0.008997 0.500000 
30 1 0.302619 0.026217 0.500000 
31 1 0.312901 0.009676 0.500000 
32 1 0.322610 0.026908 0.500000 
33 1 0.332885 0.010356 0.500000 
34 1 0.342593 0.027600 0.500000 
35 1 0.352861 0.011033 0.500000 
36 1 0.362570 0.028289 0.500000 
37 1 0.372830 0.011707 0.500000 
38 1 0.382537 0.028974 0.500000 
39 1 0.392791 0.012376 0.500000 
40 1 0.402497 0.029655 0.500000 
41 1 0.412744 0.013039 0.500000 
42 1 0.422448 0.030326 0.500000 
43 1 0.432688 0.013694 0.500000 
44 1 0.442390 0.030989 0.500000 
45 1 0.452624 0.014337 0.500000 
46 1 0.462324 0.031639 0.500000 
47 1 0.472553 0.014968 0.500000 
48 1 0.482250 0.032276 0.500000 
49 1 0.492474 0.015584 0.500000 
50 1 0.502167 0.032896 0.500000 
51 1 0.512388 0.016184 0.500000 
52 1 0.522078 0.033498 0.500000 
53 1 0.532295 0.016766 0.500000 
54 1 0.541983 0.034081 0.500000 
55 1 0.552198 0.017330 0.500000 
56 1 0.561882 0.034643 0.500000 
57 1 0.572095 0.017873 0.500000 
58 1 0.581777 0.035184 0.500000 
59 1 0.591989 0.018396 0.500000 
60 1 0.601668 0.035702 0.500000 
61 1 0.611880 0.018896 0.500000 
62 1 0.621558 0.036195 0.500000 
63 1 0.631769 0.019373 0.500000 
64 1 0.641446 0.036666 0.500000 
65 1 0.651657 0.019829 0.500000 
66 1 0.661334 0.037110 0.500000 
67 1 0.671546 0.020261 0.500000 
68 1 0.681223 0.037533 0.500000 
69 1 0.691436 0.020670 0.500000 
70 1 0.701115 0.037931 0.500000 
71 1 0.711328 0.021058 0.500000 
72 1 0.721007 0.038307 0.500000 
73 1 0.731222 0.021423 0.500000 
74 1 0.740905 0.038660 0.500000 
75 1 0.751120 0.021768 0.500000 
76 1 0.760806 0.038993 0.500000 
77 1 0.771021 0.022094 0.500000 
78 1 0.780711 0.039305 0.500000 
79 1 0.790927 0.022399 0.500000 
80 1 0.800620 0.039597 0.500000 
81 1 0.810837 0.022687 0.500000 
82 1 0.820536 0.039873 0.500000 
83 1 0.830751 0.022958 0.500000 
84 1 0.840456 0.040130 0.500000 
85 1 0.850671 0.023211 0.500000 
86 1 0.860382 0.040369 0.500000 
87 1 0.870595 0.023449 0.500000 
88 1 0.880312 0.040595 0.500000 
89 1 0.890525 0.023674 0.500000 
90 1 0.900248 0.040807 0.500000 
91 1 0.910459 0.023884 0.500000 
92 1 0.920188 0.041005 0.500000 
93 1 0.930398 0.024080 0.500000 
94 1 0.940134 0.041192 0.500000 
95 1 0.950341 0.024267 0.500000 
96 1 0.960084 0.041368 0.500000 
97 1 0.970290 0.024443 0.500000 
98 1 0.980040 0.041531 0.500000 
99 1 0.990243 0.024606 0.500000 
100 1 1.000000 0.041686 0.500000 
101 1 0.011983 0.033545 0.500000 
102 1 0.021650 0.050615 0.500000 
103 1 0.032014 0.034148 0.500000 
104 1 0.041680 0.051227 0.500000 
105 1 0.052044 0.034760 0.500000 
106 1 0.061715 0.051847 0.500000 
107 1 0.072075 0.035381 0.500000 
108 1 0.081763 0.052494 0.500000 
109 1 0.092107 0.036012 0.500000 
110 1 0.101804 0.053136 0.500000 
111 1 0.112138 0.036650 0.500000 
112 1 0.121844 0.053783 0.500000 
113 1 0.132168 0.037297 0.500000 
114 1 0.141871 0.054452 0.500000 
115 1 0.152197 0.037952 0.500000 
116 1 0.161891 0.055124 0.500000 
117 1 0.172226 0.038617 0.500000 
118 1 0.181918 0.055803 0.500000 
119 1 0.192251 0.039288 0.500000 
120 1 0.201940 0.056490 0.500000 
121 1 0.212274 0.039967 0.500000 
122 1 0.221946 0.057180 0.500000 
123 1 0.232293 0.040654 0.500000 
124 1 0.241965 0.057864 0.500000 
125 1 0.252309 0.041345 0.500000 
126 1 0.261978 0.058580 0.500000 
127 1 0.272318 0.042042 0.500000 
128 1 0.281984 0.059284 0.500000 
129 1 0.292324 0.042743 0.500000 
130 1 0.301993 0.060007 0.500000 
131 1 0.312323 0.043447 0.500000 
132 1 0.321978 0.060725 0.500000 
133 1 0.332314 0.044150 0.500000 
134 1 0.341947 0.061450 0.500000 
135 1 0.352297 0.044856 0.500000 
136 1 0.361931 0.062161 0.500000 
137 1 0.372273 0.045557 0.500000 
138 1 0.381903 0.062868 0.500000 
139 1 0.392240 0.046254 0.500000 
140 1 0.401872 0.063560 0.500000 
141 1 0.412198 0.046944 0.500000 
142 1 0.421815 0.064277 0.500000 
143 1 0.432147 0.047626 0.500000 
144 1 0.441735 0.064959 0.500000 
145 1 0.452087 0.048297 0.500000 
146 1 0.461670 0.065626 0.500000 
147 1 0.472018 0.048954 0.500000 
148 1 0.481601 0.066284 0.500000 
149 1 0.491940 0.049595 0.500000 
150 1 0.501525 0.066946 0.500000 
151 1 0.511855 0.050220 0.500000 
152 1 0.521440 0.067562 0.500000 
153 1 0.531762 0.050823 0.500000 
154 1 0.541346 0.068163 0.500000 
155 1 0.551663 0.051406 0.500000 
156 1 0.561243 0.068734 0.500000 
157 1 0.571560 0.051966 0.500000 
158 1 0.581145 0.069288 0.500000 
159 1 0.591452 0.052503 0.500000 
160 1 0.601042 0.069807 0.500000 
161 1 0.611341 0.053013 0.500000 
162 1 0.620941 0.070308 0.500000 
163 1 0.631230 0.053499 0.500000 
164 1 0.640840 0.070786 0.500000 
165 1 0.651117 0.053960 0.500000 
166 1 0.660740 0.071244 0.500000 
167 1 0.671006 0.054396 0.500000 
168 1 0.680638 0.071657 0.500000 
169 1 0.690897 0.054806 0.500000 
170 1 0.700536 0.072065 0.500000 
171 1 0.710789 0.055192 0.500000 
172 1 0.720440 0.072428 0.500000 
173 1 0.730685 0.055554 0.500000 
174 1 0.740341 0.072773 0.500000 
175 1 0.750586 0.055894 0.500000 
176 1 0.760255 0.073103 0.500000 
177 1 0.770490 0.056213 0.500000 
178 1 0.780172 0.073398 0.500000 
179 1 0.790400 0.056511 0.500000 
180 1 0.800082 0.073697 0.500000 
181 1 0.810316 0.056789 0.500000 
182 1 0.820000 0.073952 0.500000 
183 1 0.830238 0.057049 0.500000 
184 1 0.839933 0.074219 0.500000 
185 1 0.850164 0.057294 0.500000 
186 1 0.859875 0.074440 0.500000 
187 1 0.870095 0.057522 0.500000 
188 1 0.879813 0.074649 0.500000 
189 1 0.890032 0.057734 0.500000 
190 1 0.899752 0.074847 0.500000 
191 1 0.909975 0.057934 0.500000 
192 1 0.919701 0.075044 0.500000 
193 1 0.929922 0.058120 0.500000 
194 1 0.939662 0.075217 0.500000 
195 1 0.949875 0.058294 0.500000 
196 1 0.959621 0.075390 0.500000 
197 1 0.969833 0.058458 0.500000 
198 1 0.979588 0.075542 0.500000 
199 1 0.989796 0.058613 0.500000 
200 1 0.999557 0.075685 0.500000 
201 1 0.011275 0.067077 0.500000 
202 1 0.020924 0.084144 0.500000 
203 1 0.031308 0.067688 0.500000 
204 1 0.040959 0.084763 0.500000 
205 1 0.051342 0.068307 0.500000 
206 1 0.060994 0.085390 0.500000 
207 1 0.071376 0.068936 0.500000 
208 1 0.081041 0.086042 0.500000 
209 1 0.091426 0.069605 0.500000 
210 1 0.101093 0.086717 0.500000 
211 1 0.111468 0.070253 0.500000 
212 1 0.121140 0.087391 0.500000 
213 1 0.131508 0.070932 0.500000 
214 1 0.141182 0.088093 0.500000 
215 1 0.151533 0.071614 0.500000 
216 1 0.161204 0.088788 0.500000 
217 1 0.171553 0.072291 0.500000 
218 1 0.181229 0.089465 0.500000 
219 1 0.191590 0.072992 0.500000 
220 1 0.201250 0.090218 0.500000 
221 1 0.211603 0.073711 0.500000 
222 1 0.221264 0.090918 0.500000 
223 1 0.231621 0.074389 0.500000 
224 1 0.241274 0.091632 0.500000 
225 1 0.251632 0.075117 0.500000 
226 1 0.261288 0.092377 0.500000 
227 1 0.271638 0.075838 0.500000 
228 1 0.281297 0.093090 0.500000 
229 1 0.291644 0.076543 0.500000 
230 1 0.301281 0.093828 0.500000 
231 1 0.311648 0.077293 0.500000 
232 1 0.321271 0.094590 0.500000 
233 1 0.331623 0.078025 0.500000 
234 1 0.341262 0.095303 0.500000 
235 1 0.351597 0.078733 0.500000 
236 1 0.361237 0.096038 0.500000 
237 1 0.371561 0.079464 0.500000 
238 1 0.381216 0.096764 0.500000 
239 1 0.391525 0.080164 0.500000 
240 1 0.401163 0.097504 0.500000 
241 1 0.411479 0.080897 0.500000 
242 1 0.421101 0.098254 0.500000 
243 1 0.431433 0.081619 0.500000 
244 1 0.441038 0.098969 0.500000 
245 1 0.451377 0.082310 0.500000 
246 1 0.460966 0.099676 0.500000 
247 1 0.471298 0.082988 0.500000 
248 1 0.480893 0.100344 0.500000 
249 1 0.491202 0.083641 0.500000 
250 1 0.500814 0.100994 0.500000 
251 1 0.511124 0.084290 0.500000 
252 1 0.520733 0.101649 0.500000 
253 1 0.531025 0.084906 0.500000 
254 1 0.540639 0.102251 0.500000 
255 1 0.550933 0.085498 0.500000 
256 1 0.560541 0.102835 0.500000 
257 1 0.570848 0.086061 0.500000 
258 1 0.580442 0.103407 0.500000 
259 1 0.590753 0.086625 0.500000 
260 1 0.600360 0.103937 0.500000 
261 1 0.610652 0.087126 0.500000 
262 1 0.620276 0.104433 0.500000 
263 1 0.630555 0.087598 0.500000 
264 1 0.640190 0.104888 0.500000 
265 1 0.650469 0.088070 0.500000 
266 1 0.660106 0.105354 0.500000 
267 1 0.670380 0.088512 0.500000 
268 1 0.680019 0.105778 0.500000 
269 1 0.690286 0.088924 0.500000 
270 1 0.699933 0.106173 0.500000 
271 1 0.710197 0.089296 0.500000 
272 1 0.719841 0.106535 0.500000 
273 1 0.730104 0.089657 0.500000 
274 1 0.739761 0.106869 0.500000 
275 1 0.750015 0.089982 0.500000 
276 1 0.759673 0.107198 0.500000 
277 1 0.769933 0.090299 0.500000 
278 1 0.779605 0.107486 0.500000 
279 1 0.789858 0.090595 0.500000 
280 1 0.799543 0.107782 0.500000 
281 1 0.809783 0.090864 0.500000 
282 1 0.819488 0.108022 0.500000 
283 1 0.829717 0.091115 0.500000 
284 1 0.839435 0.108254 0.500000 
285 1 0.849669 0.091355 0.500000 
286 1 0.859383 0.108480 0.500000 
287 1 0.869609 0.091569 0.500000 
288 1 0.879331 0.108679 0.500000 
289 1 0.889553 0.091766 0.500000 
290 1 0.899279 0.108890 0.500000 
291 1 0.909499 0.091964 0.500000 
292 1 0.919227 0.109093 0.500000 
293 1 0.929451 0.092153 0.500000 
294 1 0.939184 0.109258 0.500000 
295 1 0.949407 0.092323 0.500000 
296 1 0.959160 0.109410 0.500000 
297 1 0.969375 0.092475 0.500000 
298 1 0.979136 0.109550 0.500000 
299 1 0.989349 0.092617 0.500000 
300 1 0.999117 0.109681 0.500000 
301 1 0.010532 0.100598 0.500000 
302 1 0.020165 0.117663 0.500000 
303 1 0.030566 0.101214 0.500000 
304 1 0.040201 0.118287 0.500000 
305 1 0.050602 0.101839 0.500000 
306 1 0.060239 0.118920 0.500000 
307 1 0.070640 0.102476 0.500000 
308 1 0.080289 0.119583 0.500000 
309 1 0.090694 0.103155 0.500000 
310 1 0.100340 0.120271 0.500000 
311 1 0.110748 0.103840 0.500000 
312 1 0.120385 0.120984 0.500000 
313 1 0.130795 0.104552 0.500000 
314 1 0.140426 0.121720 0.500000 
315 1 0.150823 0.105264 0.500000 
316 1 0.160450 0.122428 0.500000 
317 1 0.170850 0.105952 0.500000 
318 1 0.180459 0.123157 0.500000 
319 1 0.190864 0.106688 0.500000 
320 1 0.200484 0.123892 0.500000 
321 1 0.210898 0.107429 0.500000 
322 1 0.220522 0.124642 0.500000 
323 1 0.230905 0.108139 0.500000 
324 1 0.240530 0.125376 0.500000 
325 1 0.250910 0.108878 0.500000 
326 1 0.260541 0.126100 0.500000 
327 1 0.270933 0.109605 0.500000 
328 1 0.280538 0.126867 0.500000 
329 1 0.290924 0.110363 0.500000 
330 1 0.300525 0.127647 0.500000 
331 1 0.310899 0.111123 0.500000 
332 1 0.320525 0.128398 0.500000 
333 1 0.330906 0.111869 0.500000 
334 1 0.340509 0.129195 0.500000 
335 1 0.350881 0.112621 0.500000 
336 1 0.360483 0.129936 0.500000 
337 1 0.370851 0.113348 0.500000 
338 1 0.380447 0.130685 0.500000 
339 1 0.390818 0.114102 0.500000 
340 1 0.400418 0.131473 0.500000 
341 1 0.410763 0.114870 0.500000 
342 1 0.420372 0.132223 0.500000 
343 1 0.430713 0.115611 0.500000 
344 1 0.440309 0.132987 0.500000 
345 1 0.450644 0.116346 0.500000 
346 1 0.460259 0.133701 0.500000 
347 1 0.470575 0.117025 0.500000 
348 1 0.480171 0.134411 0.500000 
349 1 0.490489 0.117701 0.500000 
350 1 0.500078 0.135083 0.500000 
351 1 0.510409 0.118375 0.500000 
352 1 0.520004 0.135734 0.500000 
353 1 0.530329 0.119000 0.500000 
354 1 0.539919 0.136352 0.500000 
355 1 0.550235 0.119603 0.500000 
356 1 0.559830 0.136954 0.500000 
357 1 0.570140 0.120185 0.500000 
358 1 0.579744 0.137519 0.500000 
359 1 0.590060 0.120730 0.500000 
360 1 0.599661 0.138067 0.500000 
361 1 0.609976 0.121249 0.500000 
362 1 0.619581 0.138547 0.500000 
363 1 0.629896 0.121729 0.500000 
364 1 0.639497 0.139031 0.500000 
365 1 0.649801 0.122195 0.500000 
366 1 0.659424 0.139483 0.500000 
367 1 0.669719 0.122628 0.500000 
368 1 0.679350 0.139904 0.500000 
369 1 0.689640 0.123038 0.500000 
370 1 0.699278 0.140291 0.500000 
371 1 0.709566 0.123423 0.500000 
372 1 0.719209 0.140650 0.500000 
373 1 0.729491 0.123754 0.500000 
374 1 0.739138 0.140995 0.500000 
375 1 0.749404 0.124100 0.500000 
376 1 0.759079 0.141300 0.500000 
377 1 0.769338 0.124397 0.500000 
378 1 0.779013 0.141599 0.500000 
379 1 0.789272 0.124685 0.500000 
380 1 0.798961 0.141849 0.500000 
381 1 0.809234 0.124936 0.500000 
382 1 0.818932 0.142077 0.500000 
383 1 0.829198 0.125172 0.500000 
384 1 0.838894 0.142310 0.500000 
385 1 0.849146 0.125388 0.500000 
386 1 0.858838 0.142523 0.500000 
387 1 0.869093 0.125601 0.500000 
388 1 0.878803 0.142720 0.500000 
389 1 0.889046 0.125797 0.500000 
390 1 0.898774 0.142904 0.500000 
391 1 0.909007 0.126006 0.500000 
392 1 0.918754 0.143096 0.500000 
393 1 0.928975 0.126192 0.500000 
394 1 0.938725 0.143280 0.500000 
395 1 0.948940 0.126349 0.500000 
396 1 0.958701 0.143428 0.500000 
397 1 0.968919 0.126487 0.500000 
398 1 0.978689 0.143555 0.500000 
399 1 0.988905 0.126616 0.500000 
400 1 0.998682 0.143674 0.500000 
401 1 0.009754 0.134110 0.500000 
402 1 0.019367 0.151171 0.500000 
403 1 0.029790 0.134729 0.500000 
404 1 0.039403 0.151799 0.500000 
405 1 0.049825 0.135360 0.500000 
406 1 0.059442 0.152437 0.500000 
407 1 0.069865 0.136003 0.500000 
408 1 0.079488 0.153119 0.500000 
409 1 0.089915 0.136693 0.500000 
410 1 0.099539 0.153810 0.500000 
411 1 0.109966 0.137396 0.500000 
412 1 0.119577 0.154548 0.500000 
413 1 0.130012 0.138142 0.500000 
414 1 0.139619 0.155316 0.500000 
415 1 0.150043 0.138882 0.500000 
416 1 0.159655 0.156056 0.500000 
417 1 0.170068 0.139617 0.500000 
418 1 0.179690 0.156808 0.500000 
419 1 0.190095 0.140359 0.500000 
420 1 0.199711 0.157562 0.500000 
421 1 0.210114 0.141096 0.500000 
422 1 0.219727 0.158309 0.500000 
423 1 0.230148 0.141870 0.500000 
424 1 0.239768 0.159093 0.500000 
425 1 0.250163 0.142610 0.500000 
426 1 0.259775 0.159876 0.500000 
427 1 0.270150 0.143365 0.500000 
428 1 0.279770 0.160643 0.500000 
429 1 0.290153 0.144153 0.500000 
430 1 0.299790 0.161431 0.500000 
431 1 0.310161 0.144924 0.500000 
432 1 0.319779 0.162244 0.500000 
433 1 0.330150 0.145726 0.500000 
434 1 0.339771 0.163045 0.500000 
435 1 0.350143 0.146510 0.500000 
436 1 0.359747 0.163852 0.500000 
437 1 0.370100 0.147275 0.500000 
438 1 0.379710 0.164619 0.500000 
439 1 0.390062 0.148044 0.500000 
440 1 0.399676 0.165408 0.500000 
441 1 0.410031 0.148834 0.500000 
442 1 0.419636 0.166226 0.500000 
443 1 0.429968 0.149608 0.500000 
444 1 0.439585 0.166992 0.500000 
445 1 0.449916 0.150348 0.500000 
446 1 0.459507 0.167774 0.500000 
447 1 0.469840 0.151101 0.500000 
448 1 0.479423 0.168487 0.500000 
449 1 0.489768 0.151793 0.500000 
450 1 0.499341 0.169181 0.500000 
451 1 0.509684 0.152457 0.500000 
452 1 0.519247 0.169858 0.500000 
453 1 0.529577 0.153110 0.500000 
454 1 0.539159 0.170486 0.500000 
455 1 0.549478 0.153718 0.500000 
456 1 0.559078 0.171090 0.500000 
457 1 0.569399 0.154300 0.500000 
458 1 0.579002 0.171651 0.500000 
459 1 0.589337 0.154854 0.500000 
460 1 0.598943 0.172182 0.500000 
461 1 0.609289 0.155373 0.500000 
462 1 0.618885 0.172692 0.500000 
463 1 0.629218 0.155859 0.500000 
464 1 0.638821 0.173174 0.500000 
465 1 0.649150 0.156330 0.500000 
466 1 0.658759 0.173635 0.500000 
467 1 0.669077 0.156772 0.500000 
468 1 0.678698 0.174060 0.500000 
469 1 0.689003 0.157168 0.500000 
470 1 0.698629 0.174426 0.500000 
471 1 0.708941 0.157544 0.500000 
472 1 0.718579 0.174788 0.500000 
473 1 0.728875 0.157892 0.500000 
474 1 0.738534 0.175112 0.500000 
475 1 0.748816 0.158210 0.500000 
476 1 0.758496 0.175401 0.500000 
477 1 0.768761 0.158496 0.500000 
478 1 0.778452 0.175683 0.500000 
479 1 0.788712 0.158768 0.500000 
480 1 0.798424 0.175917 0.500000 
481 1 0.808676 0.158996 0.500000 
482 1 0.818395 0.176147 0.500000 
483 1 0.828636 0.159222 0.500000 
484 1 0.838366 0.176359 0.500000 
485 1 0.848592 0.159446 0.500000 
486 1 0.858343 0.176565 0.500000 
487 1 0.868558 0.159637 0.500000 
488 1 0.878319 0.176757 0.500000 
489 1 0.888551 0.159832 0.500000 
490 1 0.898303 0.176947 0.500000 
491 1 0.908529 0.160007 0.500000 
492 1 0.918287 0.177124 0.500000 
493 1 0.928502 0.160197 0.500000 
494 1 0.938265 0.177300 0.500000 
495 1 0.948477 0.160370 0.500000 
496 1 0.958249 0.177440 0.500000 
497 1 0.968470 0.160496 0.500000 
498 1 0.978251 0.177553 0.500000 
499 1 0.988467 0.160611 0.500000 
500 1 0.998258 0.177659 0.500000 
501 1 0.008938 0.167610 0.500000 
502 1 0.018532 0.184668 0.500000 
503 1 0.028972 0.168234 0.500000 
504 1 0.038566 0.185299 0.500000 
505 1 0.049008 0.168868 0.500000 
506 1 0.058602 0.185942 0.500000 
507 1 0.069047 0.169517 0.500000 
508 1 0.078650 0.186630 0.500000 
509 1 0.089101 0.170227 0.500000 
510 1 0.098695 0.187371 0.500000 
511 1 0.109137 0.170963 0.500000 
512 1 0.118720 0.188132 0.500000 
513 1 0.129170 0.171733 0.500000 
514 1 0.138768 0.188900 0.500000 
515 1 0.149216 0.172491 0.500000 
516 1 0.158820 0.189664 0.500000 
517 1 0.169259 0.173236 0.500000 
518 1 0.178857 0.190427 0.500000 
519 1 0.189305 0.174014 0.500000 
520 1 0.198909 0.191214 0.500000 
521 1 0.209324 0.174770 0.500000 
522 1 0.218944 0.191978 0.500000 
523 1 0.229345 0.175524 0.500000 
524 1 0.238941 0.192780 0.500000 
525 1 0.249365 0.176340 0.500000 
526 1 0.258965 0.193585 0.500000 
527 1 0.269381 0.177134 0.500000 
528 1 0.278998 0.194387 0.500000 
529 1 0.289394 0.177905 0.500000 
530 1 0.298986 0.195228 0.500000 
531 1 0.309386 0.178746 0.500000 
532 1 0.318990 0.196063 0.500000 
533 1 0.329376 0.179559 0.500000 
534 1 0.338983 0.196902 0.500000 
535 1 0.349365 0.180385 0.500000 
536 1 0.358975 0.197724 0.500000 
537 1 0.369355 0.181191 0.500000 
538 1 0.378950 0.198557 0.500000 
539 1 0.389318 0.181986 0.500000 
540 1 0.398896 0.199393 0.500000 
541 1 0.409262 0.182807 0.500000 
542 1 0.418854 0.200216 0.500000 
543 1 0.429223 0.183626 0.500000 
544 1 0.438808 0.201062 0.500000 
545 1 0.449152 0.184425 0.500000 
546 1 0.458749 0.201836 0.500000 
547 1 0.469089 0.185177 0.500000 
548 1 0.478675 0.202594 0.500000 
549 1 0.489006 0.185893 0.500000 
550 1 0.498600 0.203305 0.500000 
551 1 0.508932 0.186583 0.500000 
552 1 0.518517 0.203987 0.500000 
553 1 0.528863 0.187244 0.500000 
554 1 0.538446 0.204647 0.500000 
555 1 0.548773 0.187867 0.500000 
556 1 0.558367 0.205246 0.500000 
557 1 0.568690 0.188459 0.500000 
558 1 0.578303 0.205800 0.500000 
559 1 0.588618 0.188989 0.500000 
560 1 0.598247 0.206324 0.500000 
561 1 0.608567 0.189514 0.500000 
562 1 0.618195 0.206847 0.500000 
563 1 0.628503 0.190012 0.500000 
564 1 0.638127 0.207339 0.500000 
565 1 0.648431 0.190489 0.500000 
566 1 0.658068 0.207790 0.500000 
567 1 0.668369 0.190918 0.500000 
568 1 0.678015 0.208200 0.500000 
569 1 0.688330 0.191335 0.500000 
570 1 0.697986 0.208570 0.500000 
571 1 0.708281 0.191672 0.500000 
572 1 0.717951 0.208900 0.500000 
573 1 0.728234 0.192011 0.500000 
574 1 0.737914 0.209228 0.500000 
575 1 0.748189 0.192311 0.500000 
576 1 0.757886 0.209500 0.500000 
577 1 0.768159 0.192594 0.500000 
578 1 0.777880 0.209762 0.500000 
579 1 0.788144 0.192846 0.500000 
580 1 0.797875 0.209999 0.500000 
581 1 0.808123 0.193072 0.500000 
582 1 0.817865 0.210220 0.500000 
583 1 0.828108 0.193285 0.500000 
584 1 0.837848 0.210429 0.500000 
585 1 0.848094 0.193494 0.500000 
586 1 0.857833 0.210622 0.500000 
587 1 0.868079 0.193695 0.500000 
588 1 0.877817 0.210814 0.500000 
589 1 0.888059 0.193883 0.500000 
590 1 0.897807 0.210983 0.500000 
591 1 0.908045 0.194051 0.500000 
592 1 0.917801 0.211153 0.500000 
593 1 0.928031 0.194234 0.500000 
594 1 0.937809 0.211314 0.500000 
595 1 0.948021 0.194385 0.500000 
596 1 0.957807 0.211443 0.500000 
597 1 0.968031 0.194496 0.500000 
598 1 0.977825 0.211543 0.500000 
599 1 0.988043 0.194599 0.500000 
600 1 0.997847 0.211634 0.500000 
601 1 0.008083 0.201103 0.500000 
602 1 0.017654 0.218157 0.500000 
603 1 0.028113 0.201727 0.500000 
604 1 0.037684 0.218790 0.500000 
605 1 0.048147 0.202367 0.500000 
606 1 0.057718 0.219436 0.500000 
607 1 0.068185 0.203017 0.500000 
608 1 0.077756 0.220137 0.500000 
609 1 0.088229 0.203759 0.500000 
610 1 0.097796 0.220905 0.500000 
611 1 0.108278 0.204529 0.500000 
612 1 0.117852 0.221673 0.500000 
613 1 0.128316 0.205281 0.500000 
614 1 0.137898 0.222431 0.500000 
615 1 0.148369 0.206058 0.500000 
616 1 0.157944 0.223242 0.500000 
617 1 0.168408 0.206849 0.500000 
618 1 0.177986 0.224033 0.500000 
619 1 0.188450 0.207623 0.500000 
620 1 0.198038 0.224818 0.500000 
621 1 0.208501 0.208411 0.500000 
622 1 0.218075 0.225664 0.500000 
623 1 0.228521 0.209236 0.500000 
624 1 0.238117 0.226477 0.500000 
625 1 0.248548 0.210030 0.500000 
626 1 0.258143 0.227289 0.500000 
627 1 0.268578 0.210842 0.500000 
628 1 0.278164 0.228155 0.500000 
629 1 0.288584 0.211712 0.500000 
630 1 0.298204 0.229016 0.500000 
631 1 0.308591 0.212542 0.500000 
632 1 0.318207 0.229893 0.500000 
633 1 0.328593 0.213409 0.500000 
634 1 0.338213 0.230761 0.500000 
635 1 0.348596 0.214255 0.500000 
636 1 0.358209 0.231626 0.500000 
637 1 0.368576 0.215098 0.500000 
638 1 0.378169 0.232520 0.500000 
639 1 0.388533 0.215963 0.500000 
640 1 0.398128 0.233372 0.500000 
641 1 0.408499 0.216804 0.500000 
642 1 0.418064 0.234272 0.500000 
643 1 0.428438 0.217661 0.500000 
644 1 0.438011 0.235107 0.500000 
645 1 0.448381 0.218484 0.500000 
646 1 0.457958 0.235932 0.500000 
647 1 0.468309 0.219267 0.500000 
648 1 0.477903 0.236713 0.500000 
649 1 0.488243 0.220016 0.500000 
650 1 0.497847 0.237471 0.500000 
651 1 0.508176 0.220745 0.500000 
652 1 0.517780 0.238175 0.500000 
653 1 0.528110 0.221407 0.500000 
654 1 0.537702 0.238824 0.500000 
655 1 0.548051 0.222034 0.500000 
656 1 0.557629 0.239428 0.500000 
657 1 0.567983 0.222617 0.500000 
658 1 0.577576 0.239999 0.500000 
659 1 0.587900 0.223163 0.500000 
660 1 0.597534 0.240518 0.500000 
661 1 0.607850 0.223680 0.500000 
662 1 0.617490 0.241046 0.500000 
663 1 0.627808 0.224192 0.500000 
664 1 0.637452 0.241522 0.500000 
665 1 0.647760 0.224657 0.500000 
666 1 0.657414 0.241954 0.500000 
667 1 0.667710 0.225082 0.500000 
668 1 0.677388 0.242333 0.500000 
669 1 0.687679 0.225454 0.500000 
670 1 0.697367 0.242699 0.500000 
671 1 0.707650 0.225796 0.500000 
672 1 0.717349 0.243020 0.500000 
673 1 0.727628 0.226118 0.500000 
674 1 0.737332 0.243310 0.500000 
675 1 0.747625 0.226412 0.500000 
676 1 0.757325 0.243578 0.500000 
677 1 0.767617 0.226673 0.500000 
678 1 0.777328 0.243818 0.500000 
679 1 0.787616 0.226910 0.500000 
680 1 0.797336 0.244061 0.500000 
681 1 0.807614 0.227144 0.500000 
682 1 0.817345 0.244284 0.500000 
683 1 0.827611 0.227365 0.500000 
684 1 0.837341 0.244501 0.500000 
685 1 0.847596 0.227562 0.500000 
686 1 0.857339 0.244682 0.500000 
687 1 0.867584 0.227739 0.500000 
688 1 0.877344 0.244844 0.500000 
689 1 0.887584 0.227910 0.500000 
690 1 0.897352 0.245002 0.500000 
691 1 0.907578 0.228072 0.500000 
692 1 0.917363 0.245148 0.500000 
693 1 0.927578 0.228236 0.500000 
694 1 0.937371 0.245319 0.500000 
695 1 0.947580 0.228392 0.500000 
696 1 0.957383 0.245436 0.500000 
697 1 0.967605 0.228489 0.500000 
698 1 0.977417 0.245522 0.500000 
699 1 0.987634 0.228577 0.500000 
700 1 0.997455 0.245600 0.500000 
701 1 0.007189 0.234587 0.500000 
702 1 0.016737 0.251640 0.500000 
703 1 0.027214 0.235215 0.500000 
704 1 0.036760 0.252274 0.500000 
705 1 0.047243 0.235854 0.500000 
706 1 0.056787 0.252921 0.500000 
707 1 0.067275 0.236508 0.500000 
708 1 0.076826 0.253642 0.500000 
709 1 0.087315 0.237280 0.500000 
710 1 0.096878 0.254417 0.500000 
711 1 0.107365 0.238051 0.500000 
712 1 0.116929 0.255193 0.500000 
713 1 0.127412 0.238816 0.500000 
714 1 0.136968 0.255983 0.500000 
715 1 0.147453 0.239606 0.500000 
716 1 0.157020 0.256779 0.500000 
717 1 0.167515 0.240419 0.500000 
718 1 0.177088 0.257588 0.500000 
719 1 0.187574 0.241215 0.500000 
720 1 0.197146 0.258433 0.500000 
721 1 0.207605 0.242050 0.500000 
722 1 0.217200 0.259264 0.500000 
723 1 0.227660 0.242883 0.500000 
724 1 0.237254 0.260117 0.500000 
725 1 0.247710 0.243729 0.500000 
726 1 0.257312 0.261003 0.500000 
727 1 0.267735 0.244588 0.500000 
728 1 0.277365 0.261867 0.500000 
729 1 0.287779 0.245442 0.500000 
730 1 0.297388 0.262777 0.500000 
731 1 0.307812 0.246349 0.500000 
732 1 0.317412 0.263699 0.500000 
733 1 0.327831 0.247247 0.500000 
734 1 0.337440 0.264599 0.500000 
735 1 0.347830 0.248120 0.500000 
736 1 0.357426 0.265544 0.500000 
737 1 0.367793 0.249047 0.500000 
738 1 0.377420 0.266471 0.500000 
739 1 0.387761 0.249933 0.500000 
740 1 0.397365 0.267414 0.500000 
741 1 0.407702 0.250854 0.500000 
742 1 0.417306 0.268314 0.500000 
743 1 0.427663 0.251727 0.500000 
744 1 0.437245 0.269209 0.500000 
745 1 0.447604 0.252583 0.500000 
746 1 0.457193 0.270073 0.500000 
747 1 0.467546 0.253400 0.500000 
748 1 0.477145 0.270885 0.500000 
749 1 0.487493 0.254178 0.500000 
750 1 0.497085 0.271669 0.500000 
751 1 0.507428 0.254924 0.500000 
752 1 0.517023 0.272380 0.500000 
753 1 0.527361 0.255608 0.500000 
754 1 0.536954 0.273055 0.500000 
755 1 0.547289 0.256242 0.500000 
756 1 0.556899 0.273646 0.500000 
757 1 0.567230 0.256812 0.500000 
758 1 0.576847 0.274196 0.500000 
759 1 0.587183 0.257364 0.500000 
760 1 0.596808 0.274735 0.500000 
761 1 0.607134 0.257882 0.500000 
762 1 0.616771 0.275222 0.500000 
763 1 0.627106 0.258377 0.500000 
764 1 0.636743 0.275692 0.500000 
765 1 0.647084 0.258833 0.500000 
766 1 0.656742 0.276108 0.500000 
767 1 0.667071 0.259221 0.500000 
768 1 0.676726 0.276499 0.500000 
769 1 0.687040 0.259586 0.500000 
770 1 0.696725 0.276818 0.500000 
771 1 0.707033 0.259930 0.500000 
772 1 0.716729 0.277150 0.500000 
773 1 0.727033 0.260229 0.500000 
774 1 0.736740 0.277410 0.500000 
775 1 0.747044 0.260490 0.500000 
776 1 0.756756 0.277662 0.500000 
777 1 0.767045 0.260740 0.500000 
778 1 0.776777 0.277901 0.500000 
779 1 0.787048 0.260962 0.500000 
780 1 0.796795 0.278114 0.500000 
781 1 0.807073 0.261208 0.500000 
782 1 0.816820 0.278360 0.500000 
783 1 0.827080 0.261433 0.500000 
784 1 0.836842 0.278553 0.500000 
785 1 0.847090 0.261623 0.500000 
786 1 0.856872 0.278729 0.500000 
787 1 0.867095 0.261787 0.500000 
788 1 0.876892 0.278884 0.500000 
789 1 0.887110 0.261942 0.500000 
790 1 0.896910 0.279023 0.500000 
791 1 0.907134 0.262076 0.500000 
792 1 0.916931 0.279161 0.500000 
793 1 0.927145 0.262235 0.500000 
794 1 0.936955 0.279312 0.500000 
795 1 0.947159 0.262387 0.500000 
796 1 0.956982 0.279417 0.500000 
797 1 0.967200 0.262468 0.500000 
798 1 0.977036 0.279488 0.500000 
799 1 0.987245 0.262544 0.500000 
800 1 0.997089 0.279555 0.500000 
801 1 0.006256 0.268068 0.500000 
802 1 0.015779 0.285121 0.500000 
803 1 0.026272 0.268696 0.500000 
804 1 0.035792 0.285753 0.500000 
805 1 0.046292 0.269335 0.500000 
806 1 0.055810 0.286400 0.500000 
807 1 0.066319 0.269991 0.500000 
808 1 0.075852 0.287119 0.500000 
809 1 0.086368 0.270768 0.500000 
810 1 0.095899 0.287906 0.500000 
811 1 0.106422 0.271552 0.500000 
812 1 0.115947 0.288696 0.500000 
813 1 0.126470 0.272344 0.500000 
814 1 0.136007 0.289492 0.500000 
815 1 0.146526 0.273150 0.500000 
816 1 0.156075 0.290322 0.500000 
817 1 0.166580 0.273955 0.500000 
818 1 0.176124 0.291157 0.500000 
819 1 0.186636 0.274794 0.500000 
820 1 0.196186 0.291988 0.500000 
821 1 0.206712 0.275642 0.500000 
822 1 0.216278 0.292844 0.500000 
823 1 0.226780 0.276492 0.500000 
824 1 0.236361 0.293736 0.500000 
825 1 0.246836 0.277365 0.500000 
826 1 0.256432 0.294605 0.500000 
827 1 0.266916 0.278254 0.500000 
828 1 0.276493 0.295562 0.500000 
829 1 0.286961 0.279194 0.500000 
830 1 0.296547 0.296516 0.500000 
831 1 0.306995 0.280126 0.500000 
832 1 0.316584 0.297462 0.500000 
833 1 0.327031 0.281051 0.500000 
834 1 0.336598 0.298467 0.500000 
835 1 0.347023 0.282020 0.500000 
836 1 0.356621 0.299432 0.500000 
837 1 0.367027 0.282959 0.500000 
838 1 0.376602 0.300446 0.500000 
839 1 0.387007 0.283946 0.500000 
840 1 0.396576 0.301440 0.500000 
841 1 0.406975 0.284894 0.500000 
842 1 0.416546 0.302415 0.500000 
843 1 0.426921 0.285822 0.500000 
844 1 0.436499 0.303370 0.500000 
845 1 0.446861 0.286725 0.500000 
846 1 0.456432 0.304286 0.500000 
847 1 0.466805 0.287591 0.500000 
848 1 0.476357 0.305155 0.500000 
849 1 0.486733 0.288416 0.500000 
850 1 0.496291 0.305922 0.500000 
851 1 0.506660 0.289162 0.500000 
852 1 0.516233 0.306650 0.500000 
853 1 0.526591 0.289848 0.500000 
854 1 0.536184 0.307296 0.500000 
855 1 0.546544 0.290471 0.500000 
856 1 0.556150 0.307892 0.500000 
857 1 0.566500 0.291042 0.500000 
858 1 0.576113 0.308439 0.500000 
859 1 0.586461 0.291579 0.500000 
860 1 0.596084 0.308947 0.500000 
861 1 0.606436 0.292081 0.500000 
862 1 0.616062 0.309438 0.500000 
863 1 0.626413 0.292569 0.500000 
864 1 0.636066 0.309885 0.500000 
865 1 0.646410 0.292995 0.500000 
866 1 0.656078 0.310299 0.500000 
867 1 0.666401 0.293403 0.500000 
868 1 0.676105 0.310658 0.500000 
869 1 0.686408 0.293730 0.500000 
870 1 0.696113 0.310964 0.500000 
871 1 0.706416 0.294044 0.500000 
872 1 0.716145 0.311247 0.500000 
873 1 0.726448 0.294336 0.500000 
874 1 0.736189 0.311528 0.500000 
875 1 0.746470 0.294587 0.500000 
876 1 0.756219 0.311776 0.500000 
877 1 0.766494 0.294835 0.500000 
878 1 0.776243 0.312016 0.500000 
879 1 0.786515 0.295068 0.500000 
880 1 0.796265 0.312224 0.500000 
881 1 0.806529 0.295275 0.500000 