ITEM: TIMESTEP
2500
ITEM: NUMBER OF ATOMS
2850
ITEM: BOX BOUNDS ss ss pp
-28.0536 28.3253 
-28.9988 28.9984 
-0.5 0.5 
ITEM: ATOMS id type xs ys zs
1 1 0.012661 0.000000 0.500000 
2 1 0.022340 0.017073 0.500000 
3 1 0.032688 0.000597 0.500000 
4 1 0.042369 0.017677 0.500000 
5 1 0.052715 0.001202 0.500000 
6 1 0.062397 0.018289 0.500000 
7 1 0.072742 0.001814 0.500000 
8 1 0.082426 0.018911 0.500000 
9 1 0.092767 0.002433 0.500000 
10 1 0.102455 0.019539 0.500000 
11 1 0.112794 0.003060 0.500000 
12 1 0.122484 0.020177 0.500000 
13 1 0.132817 0.003697 0.500000 
14 1 0.142511 0.020822 0.500000 
15 1 0.152841 0.004338 0.500000 
16 1 0.162536 0.021475 0.500000 
17 1 0.172861 0.004988 0.500000 
18 1 0.182559 0.022136 0.500000 
19 1 0.192879 0.005643 0.500000 
20 1 0.202579 0.022803 0.500000 
21 1 0.212895 0.006305 0.500000 
22 1 0.222596 0.023475 0.500000 
23 1 0.232906 0.006973 0.500000 
24 1 0.242610 0.024155 0.500000 
25 1 0.252912 0.007645 0.500000 
26 1 0.262618 0.024839 0.500000 
27 1 0.272914 0.008319 0.500000 
28 1 0.282622 0.025527 0.500000 
29 1 0.292911 0.008997 0.500000 
30 1 0.302619 0.026217 0.500000 
31 1 0.312901 0.009676 0.500000 
32 1 0.322610 0.026908 0.500000 
33 1 0.332885 0.010356 0.500000 
34 1 0.342593 0.027600 0.500000 
35 1 0.352861 0.011033 0.500000 
36 1 0.362570 0.028289 0.500000 
37 1 0.372830 0.011707 0.500000 
38 1 0.382537 0.028974 0.500000 
39 1 0.392791 0.012376 0.500000 
40 1 0.402497 0.029655 0.500000 
41 1 0.412744 0.013039 0.500000 
42 1 0.422448 0.030326 0.500000 
43 1 0.432688 0.013694 0.500000 
44 1 0.442390 0.030989 0.500000 
45 1 0.452624 0.014337 0.500000 
46 1 0.462324 0.031639 0.500000 
47 1 0.472553 0.014968 0.500000 
48 1 0.482250 0.032276 0.500000 
49 1 0.492474 0.015584 0.500000 
50 1 0.502167 0.032896 0.500000 
51 1 0.512388 0.016184 0.500000 
52 1 0.522078 0.033498 0.500000 
53 1 0.532295 0.016766 0.500000 
54 1 0.541983 0.034081 0.500000 
55 1 0.552198 0.017330 0.500000 
56 1 0.561882 0.034643 0.500000 
57 1 0.572095 0.017873 0.500000 
58 1 0.581777 0.035184 0.500000 
59 1 0.591989 0.018396 0.500000 
60 1 0.601668 0.035702 0.500000 
61 1 0.611880 0.018896 0.500000 
62 1 0.621558 0.036195 0.500000 
63 1 0.631769 0.019373 0.500000 
64 1 0.641446 0.036666 0.500000 
65 1 0.651657 0.019829 0.500000 
66 1 0.661334 0.037110 0.500000 
67 1 0.671546 0.020261 0.500000 
68 1 0.681223 0.037533 0.500000 
69 1 0.691436 0.020670 0.500000 
70 1 0.701115 0.037931 0.500000 
71 1 0.711328 0.021058 0.500000 
72 1 0.721007 0.038307 0.500000 
73 1 0.731222 0.021423 0.500000 
74 1 0.740905 0.038660 0.500000 
75 1 0.751120 0.021768 0.500000 
76 1 0.760806 0.038993 0.500000 
77 1 0.771021 0.022094 0.500000 
78 1 0.780711 0.039305 0.500000 
79 1 0.790927 0.022399 0.500000 
80 1 0.800620 0.039597 0.500000 
81 1 0.810837 0.022687 0.500000 
82 1 0.820536 0.039873 0.500000 
83 1 0.830751 0.022958 0.500000 
84 1 0.840456 0.040130 0.500000 
85 1 0.850671 0.023211 0.500000 
86 1 0.860382 0.040369 0.500000 
87 1 0.870595 0.023449 0.500000 
88 1 0.880312 0.040595 0.500000 
89 1 0.890525 0.023674 0.500000 
90 1 0.900248 0.040807 0.500000 
91 1 0.910459 0.023884 0.500000 
92 1 0.920188 0.041005 0.500000 
93 1 0.930398 0.024080 0.500000 
94 1 0.940134 0.041192 0.500000 
95 1 0.950341 0.024267 0.500000 
96 1 0.960084 0.041368 0.500000 
97 1 0.970290 0.024443 0.500000 
98 1 0.980040 0.041531 0.500000 
99 1 0.990243 0.024606 0.500000 
100 1 1.000000 0.041686 0.500000 
101 1 0.011983 0.033545 0.500000 
102 1 0.021650 0.050615 0.500000 
103 1 0.032014 0.034148 0.500000 
104 1 0.041680 0.051227 0.500000 
105 1 0.052044 0.034760 0.500000 
106 1 0.061715 0.051847 0.500000 
107 1 0.072075 0.035381 0.500000 
108 1 0.081749 0.052482 0.500000 
109 1 0.092107 0.036012 0.500000 
110 1 0.101772 0.053128 0.500000 
111 1 0.112138 0.036650 0.500000 
112 1 0.121802 0.053758 0.500000 
113 1 0.132168 0.037297 0.500000 
114 1 0.141843 0.054430 0.500000 
115 1 0.152197 0.037952 0.500000 
116 1 0.161873 0.055107 0.500000 
117 1 0.172226 0.038617 0.500000 
118 1 0.181909 0.055777 0.500000 
119 1 0.192251 0.039288 0.500000 
120 1 0.201936 0.056451 0.500000 
121 1 0.212274 0.039967 0.500000 
122 1 0.221950 0.057148 0.500000 
123 1 0.232293 0.040654 0.500000 
124 1 0.241972 0.057836 0.500000 
125 1 0.252309 0.041345 0.500000 
126 1 0.261980 0.058547 0.500000 
127 1 0.272318 0.042042 0.500000 
128 1 0.281992 0.059270 0.500000 
129 1 0.292324 0.042743 0.500000 
130 1 0.302010 0.059974 0.500000 
131 1 0.312323 0.043447 0.500000 
132 1 0.322006 0.060700 0.500000 
133 1 0.332314 0.044150 0.500000 
134 1 0.341996 0.061397 0.500000 
135 1 0.352297 0.044856 0.500000 
136 1 0.361967 0.062119 0.500000 
137 1 0.372273 0.045557 0.500000 
138 1 0.381924 0.062832 0.500000 
139 1 0.392240 0.046254 0.500000 
140 1 0.401892 0.063547 0.500000 
141 1 0.412198 0.046944 0.500000 
142 1 0.421851 0.064252 0.500000 
143 1 0.432147 0.047626 0.500000 
144 1 0.441796 0.064948 0.500000 
145 1 0.452087 0.048297 0.500000 
146 1 0.461725 0.065614 0.500000 
147 1 0.472018 0.048954 0.500000 
148 1 0.481644 0.066293 0.500000 
149 1 0.491940 0.049595 0.500000 
150 1 0.501556 0.066923 0.500000 
151 1 0.511855 0.050220 0.500000 
152 1 0.521480 0.067547 0.500000 
153 1 0.531762 0.050823 0.500000 
154 1 0.541394 0.068156 0.500000 
155 1 0.551663 0.051406 0.500000 
156 1 0.561293 0.068735 0.500000 
157 1 0.571560 0.051966 0.500000 
158 1 0.581189 0.069287 0.500000 
159 1 0.591452 0.052503 0.500000 
160 1 0.601085 0.069823 0.500000 
161 1 0.611341 0.053013 0.500000 
162 1 0.620975 0.070303 0.500000 
163 1 0.631230 0.053499 0.500000 
164 1 0.640863 0.070788 0.500000 
165 1 0.651117 0.053960 0.500000 
166 1 0.660758 0.071213 0.500000 
167 1 0.671006 0.054396 0.500000 
168 1 0.680658 0.071653 0.500000 
169 1 0.690897 0.054806 0.500000 
170 1 0.700563 0.072033 0.500000 
171 1 0.710789 0.055192 0.500000 
172 1 0.720463 0.072418 0.500000 
173 1 0.730685 0.055554 0.500000 
174 1 0.740364 0.072760 0.500000 
175 1 0.750586 0.055894 0.500000 
176 1 0.760275 0.073081 0.500000 
177 1 0.770490 0.056213 0.500000 
178 1 0.780190 0.073393 0.500000 
179 1 0.790400 0.056511 0.500000 
180 1 0.800110 0.073670 0.500000 
181 1 0.810316 0.056789 0.500000 
182 1 0.820031 0.073936 0.500000 
183 1 0.830238 0.057049 0.500000 
184 1 0.839959 0.074186 0.500000 
185 1 0.850164 0.057294 0.500000 
186 1 0.859892 0.074434 0.500000 
187 1 0.870095 0.057522 0.500000 
188 1 0.879840 0.074647 0.500000 
189 1 0.890032 0.057734 0.500000 
190 1 0.899783 0.074844 0.500000 
191 1 0.909975 0.057934 0.500000 
192 1 0.919723 0.075037 0.500000 
193 1 0.929922 0.058120 0.500000 
194 1 0.939670 0.075228 0.500000 
195 1 0.949875 0.058294 0.500000 
196 1 0.959621 0.075390 0.500000 
197 1 0.969833 0.058458 0.500000 
198 1 0.979588 0.075542 0.500000 
199 1 0.989796 0.058613 0.500000 
200 1 0.999557 0.075685 0.500000 
201 1 0.011275 0.067077 0.500000 
202 1 0.020924 0.084144 0.500000 
203 1 0.031308 0.067688 0.500000 
204 1 0.040959 0.084763 0.500000 
205 1 0.051342 0.068307 0.500000 
206 1 0.060994 0.085390 0.500000 
207 1 0.071376 0.068936 0.500000 
208 1 0.081031 0.086042 0.500000 
209 1 0.091403 0.069589 0.500000 
210 1 0.101067 0.086692 0.500000 
211 1 0.111437 0.070223 0.500000 
212 1 0.121098 0.087343 0.500000 
213 1 0.131474 0.070886 0.500000 
214 1 0.141135 0.088041 0.500000 
215 1 0.151500 0.071588 0.500000 
216 1 0.161176 0.088724 0.500000 
217 1 0.171529 0.072248 0.500000 
218 1 0.181211 0.089398 0.500000 
219 1 0.191575 0.072932 0.500000 
220 1 0.201230 0.090133 0.500000 
221 1 0.211592 0.073643 0.500000 
222 1 0.221256 0.090821 0.500000 
223 1 0.231615 0.074325 0.500000 
224 1 0.241274 0.091521 0.500000 
225 1 0.251637 0.075039 0.500000 
226 1 0.261282 0.092263 0.500000 
227 1 0.271644 0.075767 0.500000 
228 1 0.281305 0.092973 0.500000 
229 1 0.291666 0.076483 0.500000 
230 1 0.301318 0.093731 0.500000 
231 1 0.311662 0.077230 0.500000 
232 1 0.321320 0.094488 0.500000 
233 1 0.331650 0.077945 0.500000 
234 1 0.341301 0.095223 0.500000 
235 1 0.351627 0.078668 0.500000 
236 1 0.361265 0.095971 0.500000 
237 1 0.371600 0.079408 0.500000 
238 1 0.381237 0.096704 0.500000 
239 1 0.391579 0.080130 0.500000 
240 1 0.401199 0.097450 0.500000 
241 1 0.411546 0.080862 0.500000 
242 1 0.421155 0.098190 0.500000 
243 1 0.431485 0.081582 0.500000 
244 1 0.441105 0.098921 0.500000 
245 1 0.451414 0.082278 0.500000 
246 1 0.461044 0.099622 0.500000 
247 1 0.471339 0.082957 0.500000 
248 1 0.480976 0.100298 0.500000 
249 1 0.491282 0.083624 0.500000 
250 1 0.500908 0.100961 0.500000 
251 1 0.511210 0.084257 0.500000 
252 1 0.520822 0.101609 0.500000 
253 1 0.531122 0.084895 0.500000 
254 1 0.540728 0.102240 0.500000 
255 1 0.551022 0.085493 0.500000 
256 1 0.560629 0.102841 0.500000 
257 1 0.570913 0.086072 0.500000 
258 1 0.580530 0.103397 0.500000 
259 1 0.590803 0.086609 0.500000 
260 1 0.600438 0.103916 0.500000 
261 1 0.610706 0.087118 0.500000 
262 1 0.620347 0.104425 0.500000 
263 1 0.630598 0.087608 0.500000 
264 1 0.640264 0.104884 0.500000 
265 1 0.650510 0.088048 0.500000 
266 1 0.660165 0.105330 0.500000 
267 1 0.670405 0.088479 0.500000 
268 1 0.680073 0.105732 0.500000 
269 1 0.690312 0.088884 0.500000 
270 1 0.699975 0.106131 0.500000 
271 1 0.710215 0.089271 0.500000 
272 1 0.719894 0.106480 0.500000 
273 1 0.730140 0.089623 0.500000 
274 1 0.739814 0.106837 0.500000 
275 1 0.750051 0.089955 0.500000 
276 1 0.759733 0.107153 0.500000 
277 1 0.769966 0.090270 0.500000 
278 1 0.779659 0.107450 0.500000 
279 1 0.789888 0.090555 0.500000 
280 1 0.799587 0.107728 0.500000 
281 1 0.809816 0.090838 0.500000 
282 1 0.819516 0.108012 0.500000 
283 1 0.829745 0.091089 0.500000 
284 1 0.839454 0.108237 0.500000 
285 1 0.849681 0.091335 0.500000 
286 1 0.859393 0.108481 0.500000 
287 1 0.869623 0.091560 0.500000 
288 1 0.879340 0.108681 0.500000 
289 1 0.889577 0.091767 0.500000 
290 1 0.899292 0.108884 0.500000 
291 1 0.909523 0.091962 0.500000 
292 1 0.919247 0.109075 0.500000 
293 1 0.929460 0.092139 0.500000 
294 1 0.939190 0.109248 0.500000 
295 1 0.949407 0.092323 0.500000 
296 1 0.959160 0.109410 0.500000 
297 1 0.969375 0.092475 0.500000 
298 1 0.979136 0.109550 0.500000 
299 1 0.989349 0.092617 0.500000 
300 1 0.999117 0.109681 0.500000 
301 1 0.010532 0.100598 0.500000 
302 1 0.020165 0.117663 0.500000 
303 1 0.030566 0.101214 0.500000 
304 1 0.040201 0.118287 0.500000 
305 1 0.050602 0.101839 0.500000 
306 1 0.060239 0.118920 0.500000 
307 1 0.070640 0.102476 0.500000 
308 1 0.080287 0.119587 0.500000 
309 1 0.090683 0.103150 0.500000 
310 1 0.100333 0.120261 0.500000 
311 1 0.110728 0.103807 0.500000 
312 1 0.120373 0.120940 0.500000 
313 1 0.130767 0.104489 0.500000 
314 1 0.140413 0.121638 0.500000 
315 1 0.150808 0.105191 0.500000 
316 1 0.160464 0.122330 0.500000 
317 1 0.170845 0.105868 0.500000 
318 1 0.180483 0.123059 0.500000 
319 1 0.190857 0.106599 0.500000 
320 1 0.200513 0.123762 0.500000 
321 1 0.210890 0.107307 0.500000 
322 1 0.220550 0.124471 0.500000 
323 1 0.230915 0.108006 0.500000 
324 1 0.240569 0.125226 0.500000 
325 1 0.250926 0.108748 0.500000 
326 1 0.260599 0.125952 0.500000 
327 1 0.270959 0.109470 0.500000 
328 1 0.280622 0.126707 0.500000 
329 1 0.290973 0.110216 0.500000 
330 1 0.300621 0.127500 0.500000 
331 1 0.310970 0.110998 0.500000 
332 1 0.320633 0.128275 0.500000 
333 1 0.330966 0.111765 0.500000 
334 1 0.340628 0.129073 0.500000 
335 1 0.350945 0.112530 0.500000 
336 1 0.360608 0.129828 0.500000 
337 1 0.370931 0.113270 0.500000 
338 1 0.380575 0.130602 0.500000 
339 1 0.390898 0.114038 0.500000 
340 1 0.400548 0.131382 0.500000 
341 1 0.410858 0.114784 0.500000 
342 1 0.420505 0.132142 0.500000 
343 1 0.430811 0.115533 0.500000 
344 1 0.440451 0.132909 0.500000 
345 1 0.450754 0.116273 0.500000 
346 1 0.460404 0.133645 0.500000 
347 1 0.470679 0.116976 0.500000 
348 1 0.480333 0.134341 0.500000 
349 1 0.490603 0.117649 0.500000 
350 1 0.500250 0.135014 0.500000 
351 1 0.510535 0.118310 0.500000 
352 1 0.520153 0.135686 0.500000 
353 1 0.530448 0.118973 0.500000 
354 1 0.540061 0.136335 0.500000 
355 1 0.550356 0.119597 0.500000 
356 1 0.559969 0.136961 0.500000 
357 1 0.570264 0.120186 0.500000 
358 1 0.579892 0.137525 0.500000 
359 1 0.590174 0.120715 0.500000 
360 1 0.599809 0.138049 0.500000 
361 1 0.610087 0.121239 0.500000 
362 1 0.619729 0.138555 0.500000 
363 1 0.630003 0.121720 0.500000 
364 1 0.639633 0.139018 0.500000 
365 1 0.649912 0.122179 0.500000 
366 1 0.659553 0.139451 0.500000 
367 1 0.669825 0.122587 0.500000 
368 1 0.679480 0.139843 0.500000 
369 1 0.689745 0.122989 0.500000 
370 1 0.699418 0.140227 0.500000 
371 1 0.709672 0.123355 0.500000 
372 1 0.719347 0.140582 0.500000 
373 1 0.729587 0.123704 0.500000 
374 1 0.739266 0.140928 0.500000 
375 1 0.749510 0.124040 0.500000 
376 1 0.759192 0.141242 0.500000 
377 1 0.769444 0.124346 0.500000 
378 1 0.779131 0.141533 0.500000 
379 1 0.789381 0.124627 0.500000 
380 1 0.799066 0.141816 0.500000 
381 1 0.809308 0.124917 0.500000 
382 1 0.819023 0.142072 0.500000 
383 1 0.829253 0.125157 0.500000 
384 1 0.838968 0.142314 0.500000 
385 1 0.849187 0.125392 0.500000 
386 1 0.858917 0.142523 0.500000 
387 1 0.869143 0.125602 0.500000 
388 1 0.878862 0.142741 0.500000 
389 1 0.889089 0.125810 0.500000 
390 1 0.898819 0.142937 0.500000 
391 1 0.909038 0.126000 0.500000 
392 1 0.918777 0.143121 0.500000 
393 1 0.928984 0.126197 0.500000 
394 1 0.938751 0.143277 0.500000 
395 1 0.948940 0.126349 0.500000 
396 1 0.958701 0.143428 0.500000 
397 1 0.968919 0.126487 0.500000 
398 1 0.978689 0.143555 0.500000 
399 1 0.988905 0.126616 0.500000 
400 1 0.998682 0.143674 0.500000 
401 1 0.009754 0.134110 0.500000 
402 1 0.019367 0.151171 0.500000 
403 1 0.029790 0.134729 0.500000 
404 1 0.039403 0.151799 0.500000 
405 1 0.049825 0.135360 0.500000 
406 1 0.059442 0.152437 0.500000 
407 1 0.069865 0.136003 0.500000 
408 1 0.079495 0.153115 0.500000 
409 1 0.089924 0.136702 0.500000 
410 1 0.099555 0.153809 0.500000 
411 1 0.109972 0.137376 0.500000 
412 1 0.119609 0.154500 0.500000 
413 1 0.130018 0.138076 0.500000 
414 1 0.139659 0.155213 0.500000 
415 1 0.150065 0.138766 0.500000 
416 1 0.159695 0.155927 0.500000 
417 1 0.170100 0.139500 0.500000 
418 1 0.179746 0.156663 0.500000 
419 1 0.190145 0.140221 0.500000 
420 1 0.199797 0.157393 0.500000 
421 1 0.210180 0.140924 0.500000 
422 1 0.219826 0.158129 0.500000 
423 1 0.230208 0.141679 0.500000 
424 1 0.239868 0.158891 0.500000 
425 1 0.250244 0.142433 0.500000 
426 1 0.259891 0.159669 0.500000 
427 1 0.270257 0.143188 0.500000 
428 1 0.279901 0.160467 0.500000 
429 1 0.290264 0.143996 0.500000 
430 1 0.299928 0.161282 0.500000 
431 1 0.310277 0.144779 0.500000 
432 1 0.319924 0.162101 0.500000 
433 1 0.330280 0.145589 0.500000 
434 1 0.339926 0.162904 0.500000 
435 1 0.350280 0.146382 0.500000 
436 1 0.359920 0.163723 0.500000 
437 1 0.370245 0.147166 0.500000 
438 1 0.379901 0.164527 0.500000 
439 1 0.390211 0.147959 0.500000 
440 1 0.399879 0.165326 0.500000 
441 1 0.410188 0.148744 0.500000 
442 1 0.419837 0.166139 0.500000 
443 1 0.430140 0.149532 0.500000 
444 1 0.439781 0.166917 0.500000 
445 1 0.450094 0.150291 0.500000 
446 1 0.459701 0.167695 0.500000 
447 1 0.470023 0.151031 0.500000 
448 1 0.479627 0.168420 0.500000 
449 1 0.489934 0.151717 0.500000 
450 1 0.499549 0.169113 0.500000 
451 1 0.509848 0.152400 0.500000 
452 1 0.519472 0.169806 0.500000 
453 1 0.529762 0.153058 0.500000 
454 1 0.539385 0.170461 0.500000 
455 1 0.549676 0.153711 0.500000 
456 1 0.559296 0.171077 0.500000 
457 1 0.569598 0.154309 0.500000 
458 1 0.579208 0.171658 0.500000 
459 1 0.589519 0.154868 0.500000 
460 1 0.599145 0.172187 0.500000 
461 1 0.609441 0.155368 0.500000 
462 1 0.619074 0.172699 0.500000 
463 1 0.629367 0.155862 0.500000 
464 1 0.639011 0.173158 0.500000 
465 1 0.649292 0.156307 0.500000 
466 1 0.658938 0.173589 0.500000 
467 1 0.669220 0.156723 0.500000 
468 1 0.678868 0.173986 0.500000 
469 1 0.689147 0.157100 0.500000 
470 1 0.698802 0.174349 0.500000 
471 1 0.709081 0.157466 0.500000 
472 1 0.718746 0.174716 0.500000 
473 1 0.728999 0.157819 0.500000 
474 1 0.738684 0.175037 0.500000 
475 1 0.748932 0.158141 0.500000 
476 1 0.758620 0.175342 0.500000 
477 1 0.768875 0.158441 0.500000 
478 1 0.778573 0.175631 0.500000 
479 1 0.788813 0.158726 0.500000 
480 1 0.798531 0.175902 0.500000 
481 1 0.808758 0.158976 0.500000 
482 1 0.818484 0.176141 0.500000 
483 1 0.828710 0.159233 0.500000 
484 1 0.838439 0.176377 0.500000 
485 1 0.848662 0.159446 0.500000 
486 1 0.858389 0.176583 0.500000 
487 1 0.868618 0.159668 0.500000 
488 1 0.878350 0.176797 0.500000 
489 1 0.888573 0.159871 0.500000 
490 1 0.898317 0.176979 0.500000 
491 1 0.908535 0.160048 0.500000 
492 1 0.918297 0.177130 0.500000 
493 1 0.928509 0.160203 0.500000 
494 1 0.938272 0.177294 0.500000 
495 1 0.948477 0.160370 0.500000 
496 1 0.958249 0.177440 0.500000 
497 1 0.968470 0.160496 0.500000 
498 1 0.978251 0.177553 0.500000 
499 1 0.988467 0.160611 0.500000 
500 1 0.998258 0.177659 0.500000 
501 1 0.008938 0.167610 0.500000 
502 1 0.018532 0.184668 0.500000 
503 1 0.028972 0.168234 0.500000 
504 1 0.038566 0.185299 0.500000 
505 1 0.049008 0.168868 0.500000 
506 1 0.058602 0.185942 0.500000 
507 1 0.069047 0.169517 0.500000 
508 1 0.078660 0.186629 0.500000 
509 1 0.089110 0.170224 0.500000 
510 1 0.098724 0.187335 0.500000 
511 1 0.109175 0.170923 0.500000 
512 1 0.118779 0.188053 0.500000 
513 1 0.129231 0.171647 0.500000 
514 1 0.138845 0.188796 0.500000 
515 1 0.149278 0.172372 0.500000 
516 1 0.158910 0.189521 0.500000 
517 1 0.169327 0.173090 0.500000 
518 1 0.178959 0.190243 0.500000 
519 1 0.189390 0.173836 0.500000 
520 1 0.199014 0.191016 0.500000 
521 1 0.209435 0.174591 0.500000 
522 1 0.219063 0.191792 0.500000 
523 1 0.229469 0.175339 0.500000 
524 1 0.239087 0.192578 0.500000 
525 1 0.249500 0.176131 0.500000 
526 1 0.259121 0.193397 0.500000 
527 1 0.269522 0.176936 0.500000 
528 1 0.279161 0.194210 0.500000 
529 1 0.289557 0.177746 0.500000 
530 1 0.299189 0.195054 0.500000 
531 1 0.309577 0.178591 0.500000 
532 1 0.319216 0.195883 0.500000 
533 1 0.329591 0.179412 0.500000 
534 1 0.339215 0.196746 0.500000 
535 1 0.349584 0.180247 0.500000 
536 1 0.359206 0.197601 0.500000 
537 1 0.369569 0.181076 0.500000 
538 1 0.379199 0.198441 0.500000 
539 1 0.389544 0.181888 0.500000 
540 1 0.399168 0.199297 0.500000 
541 1 0.409508 0.182723 0.500000 
542 1 0.419121 0.200142 0.500000 
543 1 0.429464 0.183538 0.500000 
544 1 0.439062 0.200981 0.500000 
545 1 0.449400 0.184345 0.500000 
546 1 0.459012 0.201759 0.500000 
547 1 0.469335 0.185101 0.500000 
548 1 0.478941 0.202534 0.500000 
549 1 0.489251 0.185830 0.500000 
550 1 0.498851 0.203257 0.500000 
551 1 0.509162 0.186539 0.500000 
552 1 0.518759 0.203959 0.500000 
553 1 0.529075 0.187217 0.500000 
554 1 0.538666 0.204629 0.500000 
555 1 0.548988 0.187855 0.500000 
556 1 0.558595 0.205246 0.500000 
557 1 0.568904 0.188447 0.500000 
558 1 0.578529 0.205804 0.500000 
559 1 0.588838 0.188993 0.500000 
560 1 0.598459 0.206358 0.500000 
561 1 0.608761 0.189528 0.500000 
562 1 0.618395 0.206854 0.500000 
563 1 0.628706 0.190013 0.500000 
564 1 0.638344 0.207314 0.500000 
565 1 0.648648 0.190455 0.500000 
566 1 0.658294 0.207724 0.500000 
567 1 0.668589 0.190852 0.500000 
568 1 0.678228 0.208128 0.500000 
569 1 0.688518 0.191240 0.500000 
570 1 0.698175 0.208483 0.500000 
571 1 0.708465 0.191596 0.500000 
572 1 0.718121 0.208841 0.500000 
573 1 0.728419 0.191942 0.500000 
574 1 0.738076 0.209176 0.500000 
575 1 0.748350 0.192253 0.500000 
576 1 0.758027 0.209461 0.500000 
577 1 0.768292 0.192537 0.500000 
578 1 0.777987 0.209731 0.500000 
579 1 0.788252 0.192814 0.500000 
580 1 0.797951 0.209991 0.500000 
581 1 0.808228 0.193065 0.500000 
582 1 0.817924 0.210231 0.500000 
583 1 0.828197 0.193304 0.500000 
584 1 0.837903 0.210453 0.500000 
585 1 0.848157 0.193512 0.500000 
586 1 0.857879 0.210638 0.500000 
587 1 0.868119 0.193713 0.500000 
588 1 0.877858 0.210828 0.500000 
589 1 0.888086 0.193905 0.500000 
590 1 0.897838 0.210991 0.500000 
591 1 0.908073 0.194061 0.500000 
592 1 0.917828 0.211152 0.500000 
593 1 0.928054 0.194225 0.500000 
594 1 0.937817 0.211314 0.500000 
595 1 0.948021 0.194385 0.500000 
596 1 0.957807 0.211443 0.500000 
597 1 0.968031 0.194496 0.500000 
598 1 0.977825 0.211543 0.500000 
599 1 0.988043 0.194599 0.500000 
600 1 0.997847 0.211634 0.500000 
601 1 0.008083 0.201103 0.500000 
602 1 0.017654 0.218157 0.500000 
603 1 0.028113 0.201727 0.500000 
604 1 0.037684 0.218790 0.500000 
605 1 0.048147 0.202367 0.500000 
606 1 0.057718 0.219436 0.500000 
607 1 0.068185 0.203017 0.500000 
608 1 0.077771 0.220118 0.500000 
609 1 0.088257 0.203726 0.500000 
610 1 0.097837 0.220840 0.500000 
611 1 0.108324 0.204453 0.500000 
612 1 0.117898 0.221574 0.500000 
613 1 0.128381 0.205181 0.500000 
614 1 0.137969 0.222298 0.500000 
615 1 0.148458 0.205917 0.500000 
616 1 0.158046 0.223055 0.500000 
617 1 0.168528 0.206663 0.500000 
618 1 0.178109 0.223837 0.500000 
619 1 0.188562 0.207413 0.500000 
620 1 0.198155 0.224610 0.500000 
621 1 0.208616 0.208206 0.500000 
622 1 0.218212 0.225426 0.500000 
623 1 0.228668 0.209024 0.500000 
624 1 0.238277 0.226255 0.500000 
625 1 0.248704 0.209828 0.500000 
626 1 0.258321 0.227087 0.500000 
627 1 0.268749 0.210667 0.500000 
628 1 0.278358 0.227958 0.500000 
629 1 0.288780 0.211516 0.500000 
630 1 0.298406 0.228795 0.500000 
631 1 0.308820 0.212348 0.500000 
632 1 0.318416 0.229696 0.500000 
633 1 0.328826 0.213230 0.500000 
634 1 0.338428 0.230588 0.500000 
635 1 0.348827 0.214102 0.500000 
636 1 0.358439 0.231467 0.500000 
637 1 0.368827 0.214965 0.500000 
638 1 0.378418 0.232378 0.500000 
639 1 0.388806 0.215855 0.500000 
640 1 0.398406 0.233279 0.500000 
641 1 0.408770 0.216728 0.500000 
642 1 0.418370 0.234185 0.500000 
643 1 0.428706 0.217594 0.500000 
644 1 0.438325 0.235038 0.500000 
645 1 0.448655 0.218402 0.500000 
646 1 0.458248 0.235874 0.500000 
647 1 0.468595 0.219206 0.500000 
648 1 0.478180 0.236667 0.500000 
649 1 0.488542 0.219976 0.500000 
650 1 0.498113 0.237432 0.500000 
651 1 0.508459 0.220704 0.500000 
652 1 0.518030 0.238162 0.500000 
653 1 0.528366 0.221402 0.500000 
654 1 0.537961 0.238831 0.500000 
655 1 0.548294 0.222044 0.500000 
656 1 0.557893 0.239453 0.500000 
657 1 0.568219 0.222638 0.500000 
658 1 0.577826 0.240009 0.500000 
659 1 0.588150 0.223183 0.500000 
660 1 0.597766 0.240543 0.500000 
661 1 0.608093 0.223700 0.500000 
662 1 0.617713 0.241041 0.500000 
663 1 0.628039 0.224173 0.500000 
664 1 0.637665 0.241480 0.500000 
665 1 0.647987 0.224603 0.500000 
666 1 0.657619 0.241902 0.500000 
667 1 0.667928 0.225009 0.500000 
668 1 0.677576 0.242281 0.500000 
669 1 0.687879 0.225381 0.500000 
670 1 0.697521 0.242657 0.500000 
671 1 0.707824 0.225751 0.500000 
672 1 0.717488 0.242984 0.500000 
673 1 0.727784 0.226075 0.500000 
674 1 0.737467 0.243301 0.500000 
675 1 0.747747 0.226392 0.500000 
676 1 0.757449 0.243587 0.500000 
677 1 0.767712 0.226651 0.500000 
678 1 0.777408 0.243852 0.500000 
679 1 0.787688 0.226930 0.500000 
680 1 0.797394 0.244098 0.500000 
681 1 0.807676 0.227167 0.500000 
682 1 0.817392 0.244320 0.500000 
683 1 0.827663 0.227386 0.500000 
684 1 0.837393 0.244520 0.500000 
685 1 0.847647 0.227578 0.500000 
686 1 0.857390 0.244694 0.500000 
687 1 0.867630 0.227753 0.500000 
688 1 0.877382 0.244860 0.500000 
689 1 0.887625 0.227924 0.500000 
690 1 0.897379 0.245014 0.500000 
691 1 0.907613 0.228080 0.500000 
692 1 0.917369 0.245170 0.500000 
693 1 0.927594 0.228248 0.500000 
694 1 0.937378 0.245319 0.500000 
695 1 0.947580 0.228392 0.500000 
696 1 0.957383 0.245436 0.500000 
697 1 0.967605 0.228489 0.500000 
698 1 0.977417 0.245522 0.500000 
699 1 0.987634 0.228577 0.500000 
700 1 0.997455 0.245600 0.500000 
701 1 0.007189 0.234587 0.500000 
702 1 0.016737 0.251640 0.500000 
703 1 0.027214 0.235215 0.500000 
704 1 0.036760 0.252274 0.500000 
705 1 0.047243 0.235854 0.500000 
706 1 0.056787 0.252921 0.500000 
707 1 0.067275 0.236508 0.500000 
708 1 0.076843 0.253610 0.500000 
709 1 0.087343 0.237228 0.500000 
710 1 0.096907 0.254351 0.500000 
711 1 0.107415 0.237969 0.500000 
712 1 0.116977 0.255096 0.500000 
713 1 0.127478 0.238704 0.500000 
714 1 0.137047 0.255851 0.500000 
715 1 0.147538 0.239446 0.500000 
716 1 0.157106 0.256607 0.500000 
717 1 0.167612 0.240225 0.500000 
718 1 0.177175 0.257392 0.500000 
719 1 0.187691 0.241024 0.500000 
720 1 0.197247 0.258223 0.500000 
721 1 0.207743 0.241832 0.500000 
722 1 0.217318 0.259052 0.500000 
723 1 0.227800 0.242654 0.500000 
724 1 0.237387 0.259882 0.500000 
725 1 0.247870 0.243493 0.500000 
726 1 0.257450 0.260765 0.500000 
727 1 0.267918 0.244369 0.500000 
728 1 0.277517 0.261634 0.500000 
729 1 0.287976 0.245221 0.500000 
730 1 0.297549 0.262556 0.500000 
731 1 0.307995 0.246140 0.500000 
732 1 0.317591 0.263494 0.500000 
733 1 0.328006 0.247047 0.500000 
734 1 0.337616 0.264400 0.500000 
735 1 0.348027 0.247946 0.500000 
736 1 0.357606 0.265369 0.500000 
737 1 0.368019 0.248888 0.500000 
738 1 0.377608 0.266315 0.500000 
739 1 0.388009 0.249798 0.500000 
740 1 0.397575 0.267283 0.500000 
741 1 0.407978 0.250748 0.500000 
742 1 0.417544 0.268241 0.500000 
743 1 0.427932 0.251646 0.500000 
744 1 0.437494 0.269156 0.500000 
745 1 0.447873 0.252522 0.500000 
746 1 0.457434 0.270014 0.500000 
747 1 0.467812 0.253351 0.500000 
748 1 0.477361 0.270860 0.500000 
749 1 0.487738 0.254149 0.500000 
750 1 0.497296 0.271661 0.500000 
751 1 0.507662 0.254909 0.500000 
752 1 0.517236 0.272389 0.500000 
753 1 0.527594 0.255601 0.500000 
754 1 0.537173 0.273062 0.500000 
755 1 0.547526 0.256256 0.500000 
756 1 0.557102 0.273674 0.500000 
757 1 0.567456 0.256846 0.500000 
758 1 0.577046 0.274235 0.500000 
759 1 0.587399 0.257379 0.500000 
760 1 0.597013 0.274748 0.500000 
761 1 0.607362 0.257888 0.500000 
762 1 0.616990 0.275227 0.500000 
763 1 0.627328 0.258357 0.500000 
764 1 0.636966 0.275679 0.500000 
765 1 0.647281 0.258793 0.500000 
766 1 0.656948 0.276083 0.500000 
767 1 0.667249 0.259179 0.500000 
768 1 0.676920 0.276460 0.500000 
769 1 0.687226 0.259556 0.500000 
770 1 0.696913 0.276807 0.500000 
771 1 0.707209 0.259901 0.500000 
772 1 0.716911 0.277138 0.500000 
773 1 0.727188 0.260216 0.500000 
774 1 0.736901 0.277423 0.500000 
775 1 0.747176 0.260504 0.500000 
776 1 0.756891 0.277705 0.500000 
777 1 0.767155 0.260778 0.500000 
778 1 0.776876 0.277956 0.500000 
779 1 0.787137 0.261024 0.500000 
780 1 0.796871 0.278184 0.500000 
781 1 0.807125 0.261251 0.500000 
782 1 0.816878 0.278394 0.500000 
783 1 0.827120 0.261458 0.500000 
784 1 0.836897 0.278570 0.500000 
785 1 0.847123 0.261632 0.500000 
786 1 0.856906 0.278738 0.500000 
787 1 0.867128 0.261807 0.500000 
788 1 0.876923 0.278900 0.500000 
789 1 0.887131 0.261955 0.500000 
790 1 0.896938 0.279033 0.500000 
791 1 0.907138 0.262097 0.500000 
792 1 0.916952 0.279178 0.500000 
793 1 0.927148 0.262237 0.500000 
794 1 0.936962 0.279317 0.500000 
795 1 0.947159 0.262387 0.500000 
796 1 0.956982 0.279417 0.500000 
797 1 0.967200 0.262468 0.500000 
798 1 0.977036 0.279488 0.500000 
799 1 0.987245 0.262544 0.500000 
800 1 0.997089 0.279555 0.500000 
801 1 0.006256 0.268068 0.500000 
802 1 0.015779 0.285121 0.500000 
803 1 0.026272 0.268696 0.500000 
804 1 0.035792 0.285753 0.500000 
805 1 0.046292 0.269335 0.500000 
806 1 0.055810 0.286400 0.500000 
807 1 0.066319 0.269991 0.500000 
808 1 0.075854 0.287097 0.500000 
809 1 0.086379 0.270726 0.500000 
810 1 0.095912 0.287840 0.500000 
811 1 0.106450 0.271468 0.500000 
812 1 0.115975 0.288589 0.500000 
813 1 0.126523 0.272223 0.500000 
814 1 0.136044 0.289356 0.500000 
815 1 0.146595 0.272997 0.500000 
816 1 0.156121 0.290140 0.500000 
817 1 0.166650 0.273768 0.500000 
818 1 0.176179 0.290945 0.500000 
819 1 0.186707 0.274579 0.500000 
820 1 0.196252 0.291753 0.500000 
821 1 0.206793 0.275416 0.500000 
822 1 0.216338 0.292622 0.500000 
823 1 0.226871 0.276268 0.500000 
824 1 0.236419 0.293496 0.500000 
825 1 0.246941 0.277129 0.500000 
826 1 0.256487 0.294370 0.500000 
827 1 0.267025 0.278023 0.500000 
828 1 0.276550 0.295317 0.500000 
829 1 0.287068 0.278957 0.500000 
830 1 0.296612 0.296273 0.500000 
831 1 0.307111 0.279891 0.500000 
832 1 0.316673 0.297222 0.500000 
833 1 0.327171 0.280833 0.500000 
834 1 0.336701 0.298245 0.500000 
835 1 0.347177 0.281825 0.500000 
836 1 0.356733 0.299241 0.500000 
837 1 0.367195 0.282797 0.500000 
838 1 0.376733 0.300280 0.500000 
839 1 0.387183 0.283801 0.500000 
840 1 0.396707 0.301309 0.500000 
841 1 0.407144 0.284790 0.500000 
842 1 0.416668 0.302327 0.500000 
843 1 0.427102 0.285768 0.500000 
844 1 0.436618 0.303310 0.500000 
845 1 0.447053 0.286676 0.500000 
846 1 0.456554 0.304221 0.500000 
847 1 0.466986 0.287559 0.500000 
848 1 0.476495 0.305099 0.500000 
849 1 0.486911 0.288385 0.500000 
850 1 0.496436 0.305917 0.500000 
851 1 0.506835 0.289164 0.500000 
852 1 0.516374 0.306661 0.500000 
853 1 0.526762 0.289865 0.500000 
854 1 0.536314 0.307329 0.500000 
855 1 0.546710 0.290504 0.500000 
856 1 0.556273 0.307930 0.500000 
857 1 0.566669 0.291091 0.500000 
858 1 0.576249 0.308489 0.500000 
859 1 0.586629 0.291613 0.500000 
860 1 0.596220 0.308965 0.500000 
861 1 0.606602 0.292099 0.500000 
862 1 0.616197 0.309438 0.500000 
863 1 0.626580 0.292556 0.500000 
864 1 0.636194 0.309858 0.500000 
865 1 0.646570 0.292967 0.500000 
866 1 0.656200 0.310261 0.500000 
867 1 0.666567 0.293372 0.500000 
868 1 0.676235 0.310619 0.500000 
869 1 0.686572 0.293706 0.500000 
870 1 0.696252 0.310943 0.500000 
871 1 0.706578 0.294041 0.500000 
872 1 0.716262 0.311268 0.500000 
873 1 0.726586 0.294355 0.500000 
874 1 0.736274 0.311553 0.500000 
875 1 0.746585 0.294624 0.500000 
876 1 0.756288 0.311812 0.500000 
877 1 0.766584 0.294899 0.500000 
878 1 0.776315 0.312065 0.500000 
879 1 0.786586 0.295120 0.500000 
880 1 0.796336 0.312269 0.500000 
881 1 0.806599 0.295327 0.500000 