ITEM: TIMESTEP
4300
ITEM: NUMBER OF ATOMS
2850
ITEM: BOX BOUNDS ss ss pp
-28.0536 28.3253 
-28.9988 28.9984 
-0.5 0.5 
ITEM: ATOMS id type xs ys zs
1 1 0.012661 0.000000 0.500000 
2 1 0.022340 0.017073 0.500000 
3 1 0.032688 0.000597 0.500000 
4 1 0.042369 0.017677 0.500000 
5 1 0.052715 0.001202 0.500000 
6 1 0.062397 0.018289 0.500000 
7 1 0.072742 0.001814 0.500000 
8 1 0.082426 0.018911 0.500000 
9 1 0.092767 0.002433 0.500000 
10 1 0.102455 0.019539 0.500000 
11 1 0.112794 0.003060 0.500000 
12 1 0.122484 0.020177 0.500000 
13 1 0.132817 0.003697 0.500000 
14 1 0.142511 0.020822 0.500000 
15 1 0.152841 0.004338 0.500000 
16 1 0.162536 0.021475 0.500000 
17 1 0.172861 0.004988 0.500000 
18 1 0.182559 0.022136 0.500000 
19 1 0.192879 0.005643 0.500000 
20 1 0.202579 0.022803 0.500000 
21 1 0.212895 0.006305 0.500000 
22 1 0.222596 0.023475 0.500000 
23 1 0.232906 0.006973 0.500000 
24 1 0.242610 0.024155 0.500000 
25 1 0.252912 0.007645 0.500000 
26 1 0.262618 0.024839 0.500000 
27 1 0.272914 0.008319 0.500000 
28 1 0.282622 0.025527 0.500000 
29 1 0.292911 0.008997 0.500000 
30 1 0.302619 0.026217 0.500000 
31 1 0.312901 0.009676 0.500000 
32 1 0.322610 0.026908 0.500000 
33 1 0.332885 0.010356 0.500000 
34 1 0.342593 0.027600 0.500000 
35 1 0.352861 0.011033 0.500000 
36 1 0.362570 0.028289 0.500000 
37 1 0.372830 0.011707 0.500000 
38 1 0.382537 0.028974 0.500000 
39 1 0.392791 0.012376 0.500000 
40 1 0.402497 0.029655 0.500000 
41 1 0.412744 0.013039 0.500000 
42 1 0.422448 0.030326 0.500000 
43 1 0.432688 0.013694 0.500000 
44 1 0.442390 0.030989 0.500000 
45 1 0.452624 0.014337 0.500000 
46 1 0.462324 0.031639 0.500000 
47 1 0.472553 0.014968 0.500000 
48 1 0.482250 0.032276 0.500000 
49 1 0.492474 0.015584 0.500000 
50 1 0.502167 0.032896 0.500000 
51 1 0.512388 0.016184 0.500000 
52 1 0.522078 0.033498 0.500000 
53 1 0.532295 0.016766 0.500000 
54 1 0.541983 0.034081 0.500000 
55 1 0.552198 0.017330 0.500000 
56 1 0.561882 0.034643 0.500000 
57 1 0.572095 0.017873 0.500000 
58 1 0.581777 0.035184 0.500000 
59 1 0.591989 0.018396 0.500000 
60 1 0.601668 0.035702 0.500000 
61 1 0.611880 0.018896 0.500000 
62 1 0.621558 0.036195 0.500000 
63 1 0.631769 0.019373 0.500000 
64 1 0.641446 0.036666 0.500000 
65 1 0.651657 0.019829 0.500000 
66 1 0.661334 0.037110 0.500000 
67 1 0.671546 0.020261 0.500000 
68 1 0.681223 0.037533 0.500000 
69 1 0.691436 0.020670 0.500000 
70 1 0.701115 0.037931 0.500000 
71 1 0.711328 0.021058 0.500000 
72 1 0.721007 0.038307 0.500000 
73 1 0.731222 0.021423 0.500000 
74 1 0.740905 0.038660 0.500000 
75 1 0.751120 0.021768 0.500000 
76 1 0.760806 0.038993 0.500000 
77 1 0.771021 0.022094 0.500000 
78 1 0.780711 0.039305 0.500000 
79 1 0.790927 0.022399 0.500000 
80 1 0.800620 0.039597 0.500000 
81 1 0.810837 0.022687 0.500000 
82 1 0.820536 0.039873 0.500000 
83 1 0.830751 0.022958 0.500000 
84 1 0.840456 0.040130 0.500000 
85 1 0.850671 0.023211 0.500000 
86 1 0.860382 0.040369 0.500000 
87 1 0.870595 0.023449 0.500000 
88 1 0.880312 0.040595 0.500000 
89 1 0.890525 0.023674 0.500000 
90 1 0.900248 0.040807 0.500000 
91 1 0.910459 0.023884 0.500000 
92 1 0.920188 0.041005 0.500000 
93 1 0.930398 0.024080 0.500000 
94 1 0.940134 0.041192 0.500000 
95 1 0.950341 0.024267 0.500000 
96 1 0.960084 0.041368 0.500000 
97 1 0.970290 0.024443 0.500000 
98 1 0.980040 0.041531 0.500000 
99 1 0.990243 0.024606 0.500000 
100 1 1.000000 0.041686 0.500000 
101 1 0.011983 0.033545 0.500000 
102 1 0.021650 0.050615 0.500000 
103 1 0.032014 0.034148 0.500000 
104 1 0.041680 0.051227 0.500000 
105 1 0.052044 0.034760 0.500000 
106 1 0.061715 0.051847 0.500000 
107 1 0.072075 0.035381 0.500000 
108 1 0.081753 0.052482 0.500000 
109 1 0.092107 0.036012 0.500000 
110 1 0.101791 0.053129 0.500000 
111 1 0.112138 0.036650 0.500000 
112 1 0.121826 0.053780 0.500000 
113 1 0.132168 0.037297 0.500000 
114 1 0.141858 0.054442 0.500000 
115 1 0.152197 0.037952 0.500000 
116 1 0.161891 0.055112 0.500000 
117 1 0.172226 0.038617 0.500000 
118 1 0.181921 0.055790 0.500000 
119 1 0.192251 0.039288 0.500000 
120 1 0.201945 0.056477 0.500000 
121 1 0.212274 0.039967 0.500000 
122 1 0.221968 0.057170 0.500000 
123 1 0.232293 0.040654 0.500000 
124 1 0.241983 0.057868 0.500000 
125 1 0.252309 0.041345 0.500000 
126 1 0.261997 0.058571 0.500000 
127 1 0.272318 0.042042 0.500000 
128 1 0.282005 0.059282 0.500000 
129 1 0.292324 0.042743 0.500000 
130 1 0.302004 0.059999 0.500000 
131 1 0.312323 0.043447 0.500000 
132 1 0.321999 0.060715 0.500000 
133 1 0.332314 0.044150 0.500000 
134 1 0.341980 0.061435 0.500000 
135 1 0.352297 0.044856 0.500000 
136 1 0.361956 0.062149 0.500000 
137 1 0.372273 0.045557 0.500000 
138 1 0.381926 0.062863 0.500000 
139 1 0.392240 0.046254 0.500000 
140 1 0.401884 0.063571 0.500000 
141 1 0.412198 0.046944 0.500000 
142 1 0.421834 0.064266 0.500000 
143 1 0.432147 0.047626 0.500000 
144 1 0.441775 0.064955 0.500000 
145 1 0.452087 0.048297 0.500000 
146 1 0.461706 0.065631 0.500000 
147 1 0.472018 0.048954 0.500000 
148 1 0.481631 0.066288 0.500000 
149 1 0.491940 0.049595 0.500000 
150 1 0.501548 0.066929 0.500000 
151 1 0.511855 0.050220 0.500000 
152 1 0.521459 0.067549 0.500000 
153 1 0.531762 0.050823 0.500000 
154 1 0.541364 0.068150 0.500000 
155 1 0.551663 0.051406 0.500000 
156 1 0.561266 0.068725 0.500000 
157 1 0.571560 0.051966 0.500000 
158 1 0.581164 0.069279 0.500000 
159 1 0.591452 0.052503 0.500000 
160 1 0.601062 0.069807 0.500000 
161 1 0.611341 0.053013 0.500000 
162 1 0.620956 0.070307 0.500000 
163 1 0.631230 0.053499 0.500000 
164 1 0.640851 0.070779 0.500000 
165 1 0.651117 0.053960 0.500000 
166 1 0.660745 0.071229 0.500000 
167 1 0.671006 0.054396 0.500000 
168 1 0.680642 0.071651 0.500000 
169 1 0.690897 0.054806 0.500000 
170 1 0.700542 0.072049 0.500000 
171 1 0.710789 0.055192 0.500000 
172 1 0.720444 0.072420 0.500000 
173 1 0.730685 0.055554 0.500000 
174 1 0.740350 0.072768 0.500000 
175 1 0.750586 0.055894 0.500000 
176 1 0.760259 0.073093 0.500000 
177 1 0.770490 0.056213 0.500000 
178 1 0.780175 0.073399 0.500000 
179 1 0.790400 0.056511 0.500000 
180 1 0.800096 0.073684 0.500000 
181 1 0.810316 0.056789 0.500000 
182 1 0.820021 0.073948 0.500000 
183 1 0.830238 0.057049 0.500000 
184 1 0.839949 0.074199 0.500000 
185 1 0.850164 0.057294 0.500000 
186 1 0.859882 0.074431 0.500000 
187 1 0.870095 0.057522 0.500000 
188 1 0.879822 0.074647 0.500000 
189 1 0.890032 0.057734 0.500000 
190 1 0.899767 0.074852 0.500000 
191 1 0.909975 0.057934 0.500000 
192 1 0.919716 0.075041 0.500000 
193 1 0.929922 0.058120 0.500000 
194 1 0.939668 0.075222 0.500000 
195 1 0.949875 0.058294 0.500000 
196 1 0.959621 0.075390 0.500000 
197 1 0.969833 0.058458 0.500000 
198 1 0.979588 0.075542 0.500000 
199 1 0.989796 0.058613 0.500000 
200 1 0.999557 0.075685 0.500000 
201 1 0.011275 0.067077 0.500000 
202 1 0.020924 0.084144 0.500000 
203 1 0.031308 0.067688 0.500000 
204 1 0.040959 0.084763 0.500000 
205 1 0.051342 0.068307 0.500000 
206 1 0.060994 0.085390 0.500000 
207 1 0.071376 0.068936 0.500000 
208 1 0.081042 0.086039 0.500000 
209 1 0.091424 0.069589 0.500000 
210 1 0.101088 0.086706 0.500000 
211 1 0.111467 0.070252 0.500000 
212 1 0.121132 0.087382 0.500000 
213 1 0.131503 0.070918 0.500000 
214 1 0.141174 0.088061 0.500000 
215 1 0.151540 0.071594 0.500000 
216 1 0.161211 0.088755 0.500000 
217 1 0.171574 0.072279 0.500000 
218 1 0.181246 0.089457 0.500000 
219 1 0.191603 0.072973 0.500000 
220 1 0.201277 0.090161 0.500000 
221 1 0.211630 0.073672 0.500000 
222 1 0.221303 0.090877 0.500000 
223 1 0.231652 0.074382 0.500000 
224 1 0.241326 0.091602 0.500000 
225 1 0.251667 0.075092 0.500000 
226 1 0.261339 0.092327 0.500000 
227 1 0.271677 0.075810 0.500000 
228 1 0.281346 0.093066 0.500000 
229 1 0.291679 0.076539 0.500000 
230 1 0.301346 0.093808 0.500000 
231 1 0.311676 0.077267 0.500000 
232 1 0.321336 0.094555 0.500000 
233 1 0.331663 0.078003 0.500000 
234 1 0.341318 0.095302 0.500000 
235 1 0.351641 0.078733 0.500000 
236 1 0.361291 0.096047 0.500000 
237 1 0.371609 0.079459 0.500000 
238 1 0.381253 0.096785 0.500000 
239 1 0.391571 0.080184 0.500000 
240 1 0.401210 0.097517 0.500000 
241 1 0.411525 0.080900 0.500000 
242 1 0.421155 0.098245 0.500000 
243 1 0.431465 0.081603 0.500000 
244 1 0.441090 0.098958 0.500000 
245 1 0.451398 0.082300 0.500000 
246 1 0.461021 0.099654 0.500000 
247 1 0.471324 0.082974 0.500000 
248 1 0.480944 0.100330 0.500000 
249 1 0.491244 0.083634 0.500000 
250 1 0.500859 0.100994 0.500000 
251 1 0.511157 0.084273 0.500000 
252 1 0.520769 0.101624 0.500000 
253 1 0.531067 0.084889 0.500000 
254 1 0.540677 0.102233 0.500000 
255 1 0.550972 0.085482 0.500000 
256 1 0.560582 0.102820 0.500000 
257 1 0.570873 0.086050 0.500000 
258 1 0.580486 0.103379 0.500000 
259 1 0.590773 0.086594 0.500000 
260 1 0.600389 0.103910 0.500000 
261 1 0.610675 0.087113 0.500000 
262 1 0.620295 0.104413 0.500000 
263 1 0.630577 0.087597 0.500000 
264 1 0.640202 0.104884 0.500000 
265 1 0.650478 0.088058 0.500000 
266 1 0.660109 0.105335 0.500000 
267 1 0.670379 0.088494 0.500000 
268 1 0.680017 0.105755 0.500000 
269 1 0.690283 0.088902 0.500000 
270 1 0.699927 0.106147 0.500000 
271 1 0.710191 0.089286 0.500000 
272 1 0.719843 0.106515 0.500000 
273 1 0.730100 0.089641 0.500000 
274 1 0.739763 0.106856 0.500000 
275 1 0.750016 0.089974 0.500000 
276 1 0.759688 0.107176 0.500000 
277 1 0.769935 0.090289 0.500000 
278 1 0.779619 0.107474 0.500000 
279 1 0.789859 0.090578 0.500000 
280 1 0.799552 0.107750 0.500000 
281 1 0.809791 0.090848 0.500000 
282 1 0.819488 0.108008 0.500000 
283 1 0.829724 0.091102 0.500000 
284 1 0.839431 0.108249 0.500000 
285 1 0.849663 0.091341 0.500000 
286 1 0.859377 0.108476 0.500000 
287 1 0.869604 0.091562 0.500000 
288 1 0.879328 0.108688 0.500000 
289 1 0.889550 0.091769 0.500000 
290 1 0.899282 0.108886 0.500000 
291 1 0.909500 0.091963 0.500000 
292 1 0.919238 0.109072 0.500000 
293 1 0.929453 0.092147 0.500000 
294 1 0.939197 0.109249 0.500000 
295 1 0.949407 0.092323 0.500000 
296 1 0.959160 0.109410 0.500000 
297 1 0.969375 0.092475 0.500000 
298 1 0.979136 0.109550 0.500000 
299 1 0.989349 0.092617 0.500000 
300 1 0.999117 0.109681 0.500000 
301 1 0.010532 0.100598 0.500000 
302 1 0.020165 0.117663 0.500000 
303 1 0.030566 0.101214 0.500000 
304 1 0.040201 0.118287 0.500000 
305 1 0.050602 0.101839 0.500000 
306 1 0.060239 0.118920 0.500000 
307 1 0.070640 0.102476 0.500000 
308 1 0.080290 0.119582 0.500000 
309 1 0.090695 0.103150 0.500000 
310 1 0.100342 0.120269 0.500000 
311 1 0.110745 0.103832 0.500000 
312 1 0.120395 0.120962 0.500000 
313 1 0.130792 0.104517 0.500000 
314 1 0.140443 0.121667 0.500000 
315 1 0.150835 0.105216 0.500000 
316 1 0.160487 0.122379 0.500000 
317 1 0.170875 0.105924 0.500000 
318 1 0.180529 0.123101 0.500000 
319 1 0.190912 0.106640 0.500000 
320 1 0.200567 0.123835 0.500000 
321 1 0.210941 0.107361 0.500000 
322 1 0.220597 0.124573 0.500000 
323 1 0.230967 0.108094 0.500000 
324 1 0.240623 0.125321 0.500000 
325 1 0.250988 0.108833 0.500000 
326 1 0.260641 0.126079 0.500000 
327 1 0.271000 0.109579 0.500000 
328 1 0.280650 0.126846 0.500000 
329 1 0.291005 0.110335 0.500000 
330 1 0.300653 0.127618 0.500000 
331 1 0.311000 0.111094 0.500000 
332 1 0.320647 0.128393 0.500000 
333 1 0.330986 0.111856 0.500000 
334 1 0.340633 0.129171 0.500000 
335 1 0.350964 0.112616 0.500000 
336 1 0.360607 0.129948 0.500000 
337 1 0.370934 0.113374 0.500000 
338 1 0.380572 0.130717 0.500000 
339 1 0.390895 0.114124 0.500000 
340 1 0.400526 0.131485 0.500000 
341 1 0.410841 0.114871 0.500000 
342 1 0.420471 0.132236 0.500000 
343 1 0.430782 0.115603 0.500000 
344 1 0.440406 0.132975 0.500000 
345 1 0.450715 0.116320 0.500000 
346 1 0.460332 0.133697 0.500000 
347 1 0.470640 0.117018 0.500000 
348 1 0.480252 0.134398 0.500000 
349 1 0.490556 0.117700 0.500000 
350 1 0.500170 0.135073 0.500000 
351 1 0.510472 0.118356 0.500000 
352 1 0.520083 0.135725 0.500000 
353 1 0.530381 0.118982 0.500000 
354 1 0.539993 0.136347 0.500000 
355 1 0.550289 0.119583 0.500000 
356 1 0.559902 0.136937 0.500000 
357 1 0.570196 0.120160 0.500000 
358 1 0.579811 0.137500 0.500000 
359 1 0.590103 0.120708 0.500000 
360 1 0.599719 0.138036 0.500000 
361 1 0.610009 0.121226 0.500000 
362 1 0.619629 0.138539 0.500000 
363 1 0.629917 0.121712 0.500000 
364 1 0.639542 0.139010 0.500000 
365 1 0.649826 0.122171 0.500000 
366 1 0.659460 0.139455 0.500000 
367 1 0.669741 0.122604 0.500000 
368 1 0.679379 0.139871 0.500000 
369 1 0.689658 0.123010 0.500000 
370 1 0.699307 0.140258 0.500000 
371 1 0.709578 0.123386 0.500000 
372 1 0.719237 0.140618 0.500000 
373 1 0.729503 0.123738 0.500000 
374 1 0.739170 0.140953 0.500000 
375 1 0.749432 0.124064 0.500000 
376 1 0.759109 0.141262 0.500000 
377 1 0.769365 0.124367 0.500000 
378 1 0.779050 0.141552 0.500000 
379 1 0.789302 0.124651 0.500000 
380 1 0.798997 0.141819 0.500000 
381 1 0.809246 0.124915 0.500000 
382 1 0.818950 0.142072 0.500000 
383 1 0.829192 0.125160 0.500000 
384 1 0.838903 0.142307 0.500000 
385 1 0.849142 0.125390 0.500000 
386 1 0.858860 0.142525 0.500000 
387 1 0.869096 0.125605 0.500000 
388 1 0.878822 0.142729 0.500000 
389 1 0.889054 0.125808 0.500000 
390 1 0.898786 0.142921 0.500000 
391 1 0.909015 0.125997 0.500000 
392 1 0.918753 0.143105 0.500000 
393 1 0.928977 0.126178 0.500000 
394 1 0.938724 0.143277 0.500000 
395 1 0.948940 0.126349 0.500000 
396 1 0.958701 0.143428 0.500000 
397 1 0.968919 0.126487 0.500000 
398 1 0.978689 0.143555 0.500000 
399 1 0.988905 0.126616 0.500000 
400 1 0.998682 0.143674 0.500000 
401 1 0.009754 0.134110 0.500000 
402 1 0.019367 0.151171 0.500000 
403 1 0.029790 0.134729 0.500000 
404 1 0.039403 0.151799 0.500000 
405 1 0.049825 0.135360 0.500000 
406 1 0.059442 0.152437 0.500000 
407 1 0.069865 0.136003 0.500000 
408 1 0.079499 0.153112 0.500000 
409 1 0.089925 0.136696 0.500000 
410 1 0.099558 0.153817 0.500000 
411 1 0.109981 0.137395 0.500000 
412 1 0.119613 0.154531 0.500000 
413 1 0.130034 0.138103 0.500000 
414 1 0.139665 0.155251 0.500000 
415 1 0.150087 0.138824 0.500000 
416 1 0.159721 0.155987 0.500000 
417 1 0.170133 0.139550 0.500000 
418 1 0.179770 0.156732 0.500000 
419 1 0.190176 0.140289 0.500000 
420 1 0.199815 0.157486 0.500000 
421 1 0.210214 0.141038 0.500000 
422 1 0.219856 0.158251 0.500000 
423 1 0.230247 0.141795 0.500000 
424 1 0.239888 0.159030 0.500000 
425 1 0.250272 0.142563 0.500000 
426 1 0.259914 0.159816 0.500000 
427 1 0.270291 0.143341 0.500000 
428 1 0.279933 0.160618 0.500000 
429 1 0.290299 0.144127 0.500000 
430 1 0.299941 0.161421 0.500000 
431 1 0.310300 0.144916 0.500000 
432 1 0.319941 0.162229 0.500000 
433 1 0.330294 0.145709 0.500000 
434 1 0.339932 0.163043 0.500000 
435 1 0.350275 0.146505 0.500000 
436 1 0.359910 0.163852 0.500000 
437 1 0.370245 0.147294 0.500000 
438 1 0.379874 0.164659 0.500000 
439 1 0.390202 0.148080 0.500000 
440 1 0.399829 0.165457 0.500000 
441 1 0.410152 0.148854 0.500000 
442 1 0.419775 0.166244 0.500000 
443 1 0.430092 0.149616 0.500000 
444 1 0.439710 0.167019 0.500000 
445 1 0.450022 0.150366 0.500000 
446 1 0.459638 0.167768 0.500000 
447 1 0.469945 0.151088 0.500000 
448 1 0.479558 0.168490 0.500000 
449 1 0.489864 0.151784 0.500000 
450 1 0.499474 0.169184 0.500000 
451 1 0.509780 0.152458 0.500000 
452 1 0.519386 0.169850 0.500000 
453 1 0.529692 0.153102 0.500000 
454 1 0.539301 0.170482 0.500000 
455 1 0.549603 0.153714 0.500000 
456 1 0.559213 0.171083 0.500000 
457 1 0.569512 0.154291 0.500000 
458 1 0.579125 0.171647 0.500000 
459 1 0.589424 0.154843 0.500000 
460 1 0.599043 0.172184 0.500000 
461 1 0.609339 0.155362 0.500000 
462 1 0.618962 0.172686 0.500000 
463 1 0.629254 0.155849 0.500000 
464 1 0.638886 0.173157 0.500000 
465 1 0.649173 0.156305 0.500000 
466 1 0.658811 0.173595 0.500000 
467 1 0.669098 0.156735 0.500000 
468 1 0.678744 0.174000 0.500000 
469 1 0.689026 0.157128 0.500000 
470 1 0.698681 0.174376 0.500000 
471 1 0.708961 0.157497 0.500000 
472 1 0.718621 0.174731 0.500000 
473 1 0.728900 0.157842 0.500000 
474 1 0.738569 0.175055 0.500000 
475 1 0.748844 0.158157 0.500000 
476 1 0.758522 0.175355 0.500000 
477 1 0.768790 0.158454 0.500000 
478 1 0.778480 0.175634 0.500000 
479 1 0.788743 0.158727 0.500000 
480 1 0.798441 0.175892 0.500000 
481 1 0.808699 0.158980 0.500000 
482 1 0.818402 0.176135 0.500000 
483 1 0.828659 0.159222 0.500000 
484 1 0.838368 0.176366 0.500000 
485 1 0.848620 0.159446 0.500000 
486 1 0.858342 0.176574 0.500000 
487 1 0.868587 0.159653 0.500000 
488 1 0.878319 0.176773 0.500000 
489 1 0.888555 0.159846 0.500000 
490 1 0.898297 0.176955 0.500000 
491 1 0.908526 0.160029 0.500000 
492 1 0.918276 0.177130 0.500000 
493 1 0.928500 0.160205 0.500000 
494 1 0.938259 0.177297 0.500000 
495 1 0.948477 0.160370 0.500000 
496 1 0.958249 0.177440 0.500000 
497 1 0.968470 0.160496 0.500000 
498 1 0.978251 0.177553 0.500000 
499 1 0.988467 0.160611 0.500000 
500 1 0.998258 0.177659 0.500000 
501 1 0.008938 0.167610 0.500000 
502 1 0.018532 0.184668 0.500000 
503 1 0.028972 0.168234 0.500000 
504 1 0.038566 0.185299 0.500000 
505 1 0.049008 0.168868 0.500000 
506 1 0.058602 0.185942 0.500000 
507 1 0.069047 0.169517 0.500000 
508 1 0.078664 0.186625 0.500000 
509 1 0.089115 0.170225 0.500000 
510 1 0.098724 0.187349 0.500000 
511 1 0.109176 0.170946 0.500000 
512 1 0.118786 0.188079 0.500000 
513 1 0.129234 0.171673 0.500000 
514 1 0.138845 0.188820 0.500000 
515 1 0.149288 0.172406 0.500000 
516 1 0.158902 0.189572 0.500000 
517 1 0.169344 0.173160 0.500000 
518 1 0.178962 0.190339 0.500000 
519 1 0.189398 0.173921 0.500000 
520 1 0.199018 0.191117 0.500000 
521 1 0.209446 0.174691 0.500000 
522 1 0.219068 0.191910 0.500000 
523 1 0.229487 0.175478 0.500000 
524 1 0.239111 0.192715 0.500000 
525 1 0.249521 0.176275 0.500000 
526 1 0.259146 0.193536 0.500000 
527 1 0.269547 0.177086 0.500000 
528 1 0.279174 0.194370 0.500000 
529 1 0.289568 0.177907 0.500000 
530 1 0.299194 0.195213 0.500000 
531 1 0.309577 0.178733 0.500000 
532 1 0.319201 0.196063 0.500000 
533 1 0.329573 0.179561 0.500000 
534 1 0.339196 0.196911 0.500000 
535 1 0.349560 0.180392 0.500000 
536 1 0.359178 0.197765 0.500000 
537 1 0.369534 0.181222 0.500000 
538 1 0.379151 0.198613 0.500000 
539 1 0.389495 0.182045 0.500000 
540 1 0.399108 0.199452 0.500000 
541 1 0.409445 0.182856 0.500000 
542 1 0.419054 0.200276 0.500000 
543 1 0.429385 0.183654 0.500000 
544 1 0.438992 0.201080 0.500000 
545 1 0.449318 0.184432 0.500000 
546 1 0.458920 0.201865 0.500000 
547 1 0.469243 0.185185 0.500000 
548 1 0.478843 0.202614 0.500000 
549 1 0.489162 0.185904 0.500000 
550 1 0.498760 0.203330 0.500000 
551 1 0.509076 0.186594 0.500000 
552 1 0.518676 0.204011 0.500000 
553 1 0.528989 0.187245 0.500000 
554 1 0.538590 0.204650 0.500000 
555 1 0.548905 0.187869 0.500000 
556 1 0.558508 0.205256 0.500000 
557 1 0.568821 0.188452 0.500000 
558 1 0.578428 0.205821 0.500000 
559 1 0.588740 0.189000 0.500000 
560 1 0.598351 0.206355 0.500000 
561 1 0.608662 0.189523 0.500000 
562 1 0.618282 0.206855 0.500000 
563 1 0.628588 0.190005 0.500000 
564 1 0.638215 0.207319 0.500000 
565 1 0.648518 0.190458 0.500000 
566 1 0.658156 0.207745 0.500000 
567 1 0.668454 0.190871 0.500000 
568 1 0.678101 0.208140 0.500000 
569 1 0.688394 0.191256 0.500000 
570 1 0.698050 0.208509 0.500000 
571 1 0.708340 0.191620 0.500000 
572 1 0.718008 0.208850 0.500000 
573 1 0.728293 0.191952 0.500000 
574 1 0.737970 0.209164 0.500000 
575 1 0.748250 0.192258 0.500000 
576 1 0.757937 0.209455 0.500000 
577 1 0.768212 0.192543 0.500000 
578 1 0.777908 0.209721 0.500000 
579 1 0.788178 0.192805 0.500000 
580 1 0.797881 0.209972 0.500000 
581 1 0.808145 0.193053 0.500000 
582 1 0.817860 0.210205 0.500000 
583 1 0.828115 0.193284 0.500000 
584 1 0.837844 0.210420 0.500000 
585 1 0.848094 0.193496 0.500000 
586 1 0.857831 0.210623 0.500000 
587 1 0.868077 0.193697 0.500000 
588 1 0.877824 0.210810 0.500000 
589 1 0.888064 0.193883 0.500000 
590 1 0.897816 0.210987 0.500000 
591 1 0.908049 0.194059 0.500000 
592 1 0.917809 0.211154 0.500000 
593 1 0.928035 0.194225 0.500000 
594 1 0.937805 0.211314 0.500000 
595 1 0.948021 0.194385 0.500000 
596 1 0.957807 0.211443 0.500000 
597 1 0.968031 0.194496 0.500000 
598 1 0.977825 0.211543 0.500000 
599 1 0.988043 0.194599 0.500000 
600 1 0.997847 0.211634 0.500000 
601 1 0.008083 0.201103 0.500000 
602 1 0.017654 0.218157 0.500000 
603 1 0.028113 0.201727 0.500000 
604 1 0.037684 0.218790 0.500000 
605 1 0.048147 0.202367 0.500000 
606 1 0.057718 0.219436 0.500000 
607 1 0.068185 0.203017 0.500000 
608 1 0.077778 0.220128 0.500000 
609 1 0.088256 0.203743 0.500000 
610 1 0.097842 0.220864 0.500000 
611 1 0.108321 0.204474 0.500000 
612 1 0.117905 0.221608 0.500000 
613 1 0.128385 0.205220 0.500000 
614 1 0.137973 0.222366 0.500000 
615 1 0.148448 0.205976 0.500000 
616 1 0.158041 0.223135 0.500000 
617 1 0.168511 0.206743 0.500000 
618 1 0.178106 0.223922 0.500000 
619 1 0.188571 0.207527 0.500000 
620 1 0.198169 0.224726 0.500000 
621 1 0.208628 0.208326 0.500000 
622 1 0.218229 0.225544 0.500000 
623 1 0.228681 0.209140 0.500000 
624 1 0.238284 0.226383 0.500000 
625 1 0.248725 0.209968 0.500000 
626 1 0.258332 0.227234 0.500000 
627 1 0.268763 0.210812 0.500000 
628 1 0.278371 0.228106 0.500000 
629 1 0.288791 0.211670 0.500000 
630 1 0.298400 0.228989 0.500000 
631 1 0.308810 0.212538 0.500000 
632 1 0.318419 0.229879 0.500000 
633 1 0.328819 0.213409 0.500000 
634 1 0.338424 0.230779 0.500000 
635 1 0.348811 0.214286 0.500000 
636 1 0.358416 0.231677 0.500000 
637 1 0.368792 0.215157 0.500000 
638 1 0.378392 0.232573 0.500000 
639 1 0.388757 0.216024 0.500000 
640 1 0.398355 0.233458 0.500000 
641 1 0.408711 0.216879 0.500000 
642 1 0.418306 0.234329 0.500000 
643 1 0.428654 0.217714 0.500000 
644 1 0.438244 0.235179 0.500000 
645 1 0.448585 0.218531 0.500000 
646 1 0.458175 0.235996 0.500000 
647 1 0.468512 0.219312 0.500000 
648 1 0.478098 0.236773 0.500000 
649 1 0.488434 0.220058 0.500000 
650 1 0.498017 0.237512 0.500000 
651 1 0.508351 0.220766 0.500000 
652 1 0.517936 0.238206 0.500000 
653 1 0.528268 0.221433 0.500000 
654 1 0.537856 0.238859 0.500000 
655 1 0.548185 0.222058 0.500000 
656 1 0.557781 0.239462 0.500000 
657 1 0.568107 0.222642 0.500000 
658 1 0.577709 0.240026 0.500000 
659 1 0.588032 0.223189 0.500000 
660 1 0.597643 0.240551 0.500000 
661 1 0.607966 0.223702 0.500000 
662 1 0.617585 0.241042 0.500000 
663 1 0.627906 0.224181 0.500000 
664 1 0.637535 0.241495 0.500000 
665 1 0.647852 0.224621 0.500000 
666 1 0.657493 0.241911 0.500000 
667 1 0.667802 0.225025 0.500000 
668 1 0.677457 0.242295 0.500000 
669 1 0.687757 0.225402 0.500000 
670 1 0.697422 0.242652 0.500000 
671 1 0.707717 0.225750 0.500000 
672 1 0.717394 0.242980 0.500000 
673 1 0.727683 0.226071 0.500000 
674 1 0.737371 0.243282 0.500000 
675 1 0.747655 0.226368 0.500000 
676 1 0.757355 0.243560 0.500000 
677 1 0.767633 0.226641 0.500000 
678 1 0.777344 0.243817 0.500000 
679 1 0.787613 0.226893 0.500000 
680 1 0.797334 0.244052 0.500000 
681 1 0.807598 0.227128 0.500000 
682 1 0.817327 0.244272 0.500000 
683 1 0.827587 0.227344 0.500000 
684 1 0.837325 0.244474 0.500000 
685 1 0.847580 0.227548 0.500000 
686 1 0.857328 0.244666 0.500000 
687 1 0.867577 0.227737 0.500000 
688 1 0.877334 0.244840 0.500000 
689 1 0.887577 0.227913 0.500000 
690 1 0.897341 0.245008 0.500000 
691 1 0.907576 0.228081 0.500000 
692 1 0.917352 0.245167 0.500000 
693 1 0.927577 0.228241 0.500000 
694 1 0.937365 0.245318 0.500000 
695 1 0.947580 0.228392 0.500000 
696 1 0.957383 0.245436 0.500000 
697 1 0.967605 0.228489 0.500000 
698 1 0.977417 0.245522 0.500000 
699 1 0.987634 0.228577 0.500000 
700 1 0.997455 0.245600 0.500000 
701 1 0.007189 0.234587 0.500000 
702 1 0.016737 0.251640 0.500000 
703 1 0.027214 0.235215 0.500000 
704 1 0.036760 0.252274 0.500000 
705 1 0.047243 0.235854 0.500000 
706 1 0.056787 0.252921 0.500000 
707 1 0.067275 0.236508 0.500000 
708 1 0.076840 0.253617 0.500000 
709 1 0.087343 0.237242 0.500000 
710 1 0.096902 0.254360 0.500000 
711 1 0.107411 0.237988 0.500000 
712 1 0.116969 0.255116 0.500000 
713 1 0.127478 0.238743 0.500000 
714 1 0.137040 0.255882 0.500000 
715 1 0.147548 0.239514 0.500000 
716 1 0.157114 0.256668 0.500000 
717 1 0.167621 0.240302 0.500000 
718 1 0.177189 0.257475 0.500000 
719 1 0.187691 0.241108 0.500000 
720 1 0.197264 0.258299 0.500000 
721 1 0.207759 0.241931 0.500000 
722 1 0.217330 0.259147 0.500000 
723 1 0.227819 0.242776 0.500000 
724 1 0.237397 0.260015 0.500000 
725 1 0.247877 0.243637 0.500000 
726 1 0.257460 0.260904 0.500000 
727 1 0.267928 0.244515 0.500000 
728 1 0.277511 0.261814 0.500000 
729 1 0.287970 0.245416 0.500000 
730 1 0.297557 0.262741 0.500000 
731 1 0.308000 0.246324 0.500000 
732 1 0.317587 0.263683 0.500000 
733 1 0.328016 0.247245 0.500000 
734 1 0.337604 0.264632 0.500000 
735 1 0.348021 0.248170 0.500000 
736 1 0.357609 0.265587 0.500000 
737 1 0.368012 0.249095 0.500000 
738 1 0.377596 0.266539 0.500000 
739 1 0.387986 0.250014 0.500000 
740 1 0.397567 0.267481 0.500000 
741 1 0.407946 0.250916 0.500000 
742 1 0.417520 0.268406 0.500000 
743 1 0.427892 0.251807 0.500000 
744 1 0.437465 0.269305 0.500000 
745 1 0.447827 0.252661 0.500000 
746 1 0.457396 0.270162 0.500000 
747 1 0.467755 0.253476 0.500000 
748 1 0.477320 0.270973 0.500000 
749 1 0.487678 0.254250 0.500000 
750 1 0.497243 0.271735 0.500000 
751 1 0.507598 0.254975 0.500000 
752 1 0.517165 0.272445 0.500000 
753 1 0.527518 0.255653 0.500000 
754 1 0.537093 0.273096 0.500000 
755 1 0.547445 0.256281 0.500000 
756 1 0.557027 0.273698 0.500000 
757 1 0.567375 0.256863 0.500000 
758 1 0.576969 0.274256 0.500000 
759 1 0.587313 0.257403 0.500000 
760 1 0.596921 0.274770 0.500000 
761 1 0.607259 0.257904 0.500000 
762 1 0.616882 0.275246 0.500000 
763 1 0.627213 0.258370 0.500000 
764 1 0.636848 0.275685 0.500000 
765 1 0.647175 0.258797 0.500000 
766 1 0.656824 0.276087 0.500000 
767 1 0.667145 0.259190 0.500000 
768 1 0.676806 0.276461 0.500000 
769 1 0.687119 0.259557 0.500000 
770 1 0.696793 0.276806 0.500000 
771 1 0.707097 0.259890 0.500000 
772 1 0.716784 0.277117 0.500000 
773 1 0.727081 0.260200 0.500000 
774 1 0.736782 0.277406 0.500000 
775 1 0.747071 0.260481 0.500000 
776 1 0.756783 0.277669 0.500000 
777 1 0.767067 0.260742 0.500000 
778 1 0.776788 0.277913 0.500000 
779 1 0.787064 0.260982 0.500000 
780 1 0.796798 0.278135 0.500000 
781 1 0.807064 0.261202 0.500000 
782 1 0.816813 0.278339 0.500000 
783 1 0.827070 0.261406 0.500000 
784 1 0.836830 0.278530 0.500000 
785 1 0.847079 0.261597 0.500000 
786 1 0.856848 0.278708 0.500000 
787 1 0.867091 0.261773 0.500000 
788 1 0.876869 0.278871 0.500000 
789 1 0.887104 0.261937 0.500000 
790 1 0.896893 0.279024 0.500000 
791 1 0.907119 0.262092 0.500000 
792 1 0.916919 0.279168 0.500000 
793 1 0.927141 0.262243 0.500000 
794 1 0.936948 0.279309 0.500000 
795 1 0.947159 0.262387 0.500000 
796 1 0.956982 0.279417 0.500000 
797 1 0.967200 0.262468 0.500000 
798 1 0.977036 0.279488 0.500000 
799 1 0.987245 0.262544 0.500000 
800 1 0.997089 0.279555 0.500000 
801 1 0.006256 0.268068 0.500000 
802 1 0.015779 0.285121 0.500000 
803 1 0.026272 0.268696 0.500000 
804 1 0.035792 0.285753 0.500000 
805 1 0.046292 0.269335 0.500000 
806 1 0.055810 0.286400 0.500000 
807 1 0.066319 0.269991 0.500000 
808 1 0.075856 0.287096 0.500000 
809 1 0.086381 0.270728 0.500000 
810 1 0.095913 0.287840 0.500000 
811 1 0.106446 0.271480 0.500000 
812 1 0.115978 0.288601 0.500000 
813 1 0.126516 0.272246 0.500000 
814 1 0.136049 0.289377 0.500000 
815 1 0.146591 0.273026 0.500000 
816 1 0.156123 0.290175 0.500000 
817 1 0.166668 0.273830 0.500000 
818 1 0.176201 0.290995 0.500000 
819 1 0.186746 0.274653 0.500000 
820 1 0.196278 0.291843 0.500000 
821 1 0.206820 0.275504 0.500000 
822 1 0.216358 0.292715 0.500000 
823 1 0.226892 0.276374 0.500000 
824 1 0.236436 0.293612 0.500000 
825 1 0.246963 0.277268 0.500000 
826 1 0.256510 0.294541 0.500000 
827 1 0.267027 0.278192 0.500000 
828 1 0.276582 0.295491 0.500000 
829 1 0.287085 0.279127 0.500000 
830 1 0.296640 0.296464 0.500000 
831 1 0.307131 0.280090 0.500000 
832 1 0.316689 0.297460 0.500000 
833 1 0.327164 0.281065 0.500000 
834 1 0.336725 0.298469 0.500000 
835 1 0.347181 0.282044 0.500000 
836 1 0.356742 0.299488 0.500000 
837 1 0.367183 0.283032 0.500000 
838 1 0.376743 0.300506 0.500000 
839 1 0.387167 0.284010 0.500000 
840 1 0.396720 0.301520 0.500000 
841 1 0.407133 0.284981 0.500000 
842 1 0.416683 0.302512 0.500000 
843 1 0.427086 0.285923 0.500000 
844 1 0.436626 0.303471 0.500000 
845 1 0.447023 0.286829 0.500000 
846 1 0.456560 0.304378 0.500000 
847 1 0.466952 0.287686 0.500000 
848 1 0.476489 0.305226 0.500000 
849 1 0.486875 0.288485 0.500000 
850 1 0.496414 0.306007 0.500000 
851 1 0.506799 0.289229 0.500000 
852 1 0.516347 0.306723 0.500000 
853 1 0.526730 0.289914 0.500000 
854 1 0.536291 0.307376 0.500000 
855 1 0.546668 0.290535 0.500000 
856 1 0.556243 0.307965 0.500000 
857 1 0.566614 0.291109 0.500000 
858 1 0.576202 0.308512 0.500000 
859 1 0.586571 0.291640 0.500000 
860 1 0.596174 0.309009 0.500000 
861 1 0.606537 0.292125 0.500000 
862 1 0.616155 0.309466 0.500000 
863 1 0.626512 0.292576 0.500000 
864 1 0.636147 0.309889 0.500000 
865 1 0.646493 0.292986 0.500000 
866 1 0.656147 0.310275 0.500000 
867 1 0.666482 0.293367 0.500000 
868 1 0.676152 0.310635 0.500000 
869 1 0.686476 0.293721 0.500000 
870 1 0.696165 0.310960 0.500000 
871 1 0.706477 0.294037 0.500000 
872 1 0.716180 0.311256 0.500000 
873 1 0.726483 0.294329 0.500000 
874 1 0.736201 0.311527 0.500000 
875 1 0.746496 0.294598 0.500000 
876 1 0.756230 0.311776 0.500000 
877 1 0.766512 0.294845 0.500000 
878 1 0.776261 0.312008 0.500000 
879 1 0.786530 0.295073 0.500000 
880 1 0.796291 0.312218 0.500000 
881 1 0.806552 0.295276 0.500000 