ITEM: TIMESTEP
4200
ITEM: NUMBER OF ATOMS
2850
ITEM: BOX BOUNDS ss ss pp
-28.0536 28.3253 
-28.9988 28.9984 
-0.5 0.5 
ITEM: ATOMS id type xs ys zs
1 1 0.012661 0.000000 0.500000 
2 1 0.022340 0.017073 0.500000 
3 1 0.032688 0.000597 0.500000 
4 1 0.042369 0.017677 0.500000 
5 1 0.052715 0.001202 0.500000 
6 1 0.062397 0.018289 0.500000 
7 1 0.072742 0.001814 0.500000 
8 1 0.082426 0.018911 0.500000 
9 1 0.092767 0.002433 0.500000 
10 1 0.102455 0.019539 0.500000 
11 1 0.112794 0.003060 0.500000 
12 1 0.122484 0.020177 0.500000 
13 1 0.132817 0.003697 0.500000 
14 1 0.142511 0.020822 0.500000 
15 1 0.152841 0.004338 0.500000 
16 1 0.162536 0.021475 0.500000 
17 1 0.172861 0.004988 0.500000 
18 1 0.182559 0.022136 0.500000 
19 1 0.192879 0.005643 0.500000 
20 1 0.202579 0.022803 0.500000 
21 1 0.212895 0.006305 0.500000 
22 1 0.222596 0.023475 0.500000 
23 1 0.232906 0.006973 0.500000 
24 1 0.242610 0.024155 0.500000 
25 1 0.252912 0.007645 0.500000 
26 1 0.262618 0.024839 0.500000 
27 1 0.272914 0.008319 0.500000 
28 1 0.282622 0.025527 0.500000 
29 1 0.292911 0.008997 0.500000 
30 1 0.302619 0.026217 0.500000 
31 1 0.312901 0.009676 0.500000 
32 1 0.322610 0.026908 0.500000 
33 1 0.332885 0.010356 0.500000 
34 1 0.342593 0.027600 0.500000 
35 1 0.352861 0.011033 0.500000 
36 1 0.362570 0.028289 0.500000 
37 1 0.372830 0.011707 0.500000 
38 1 0.382537 0.028974 0.500000 
39 1 0.392791 0.012376 0.500000 
40 1 0.402497 0.029655 0.500000 
41 1 0.412744 0.013039 0.500000 
42 1 0.422448 0.030326 0.500000 
43 1 0.432688 0.013694 0.500000 
44 1 0.442390 0.030989 0.500000 
45 1 0.452624 0.014337 0.500000 
46 1 0.462324 0.031639 0.500000 
47 1 0.472553 0.014968 0.500000 
48 1 0.482250 0.032276 0.500000 
49 1 0.492474 0.015584 0.500000 
50 1 0.502167 0.032896 0.500000 
51 1 0.512388 0.016184 0.500000 
52 1 0.522078 0.033498 0.500000 
53 1 0.532295 0.016766 0.500000 
54 1 0.541983 0.034081 0.500000 
55 1 0.552198 0.017330 0.500000 
56 1 0.561882 0.034643 0.500000 
57 1 0.572095 0.017873 0.500000 
58 1 0.581777 0.035184 0.500000 
59 1 0.591989 0.018396 0.500000 
60 1 0.601668 0.035702 0.500000 
61 1 0.611880 0.018896 0.500000 
62 1 0.621558 0.036195 0.500000 
63 1 0.631769 0.019373 0.500000 
64 1 0.641446 0.036666 0.500000 
65 1 0.651657 0.019829 0.500000 
66 1 0.661334 0.037110 0.500000 
67 1 0.671546 0.020261 0.500000 
68 1 0.681223 0.037533 0.500000 
69 1 0.691436 0.020670 0.500000 
70 1 0.701115 0.037931 0.500000 
71 1 0.711328 0.021058 0.500000 
72 1 0.721007 0.038307 0.500000 
73 1 0.731222 0.021423 0.500000 
74 1 0.740905 0.038660 0.500000 
75 1 0.751120 0.021768 0.500000 
76 1 0.760806 0.038993 0.500000 
77 1 0.771021 0.022094 0.500000 
78 1 0.780711 0.039305 0.500000 
79 1 0.790927 0.022399 0.500000 
80 1 0.800620 0.039597 0.500000 
81 1 0.810837 0.022687 0.500000 
82 1 0.820536 0.039873 0.500000 
83 1 0.830751 0.022958 0.500000 
84 1 0.840456 0.040130 0.500000 
85 1 0.850671 0.023211 0.500000 
86 1 0.860382 0.040369 0.500000 
87 1 0.870595 0.023449 0.500000 
88 1 0.880312 0.040595 0.500000 
89 1 0.890525 0.023674 0.500000 
90 1 0.900248 0.040807 0.500000 
91 1 0.910459 0.023884 0.500000 
92 1 0.920188 0.041005 0.500000 
93 1 0.930398 0.024080 0.500000 
94 1 0.940134 0.041192 0.500000 
95 1 0.950341 0.024267 0.500000 
96 1 0.960084 0.041368 0.500000 
97 1 0.970290 0.024443 0.500000 
98 1 0.980040 0.041531 0.500000 
99 1 0.990243 0.024606 0.500000 
100 1 1.000000 0.041686 0.500000 
101 1 0.011983 0.033545 0.500000 
102 1 0.021650 0.050615 0.500000 
103 1 0.032014 0.034148 0.500000 
104 1 0.041680 0.051227 0.500000 
105 1 0.052044 0.034760 0.500000 
106 1 0.061715 0.051847 0.500000 
107 1 0.072075 0.035381 0.500000 
108 1 0.081753 0.052483 0.500000 
109 1 0.092107 0.036012 0.500000 
110 1 0.101790 0.053126 0.500000 
111 1 0.112138 0.036650 0.500000 
112 1 0.121827 0.053781 0.500000 
113 1 0.132168 0.037297 0.500000 
114 1 0.141861 0.054441 0.500000 
115 1 0.152197 0.037952 0.500000 
116 1 0.161891 0.055110 0.500000 
117 1 0.172226 0.038617 0.500000 
118 1 0.181919 0.055790 0.500000 
119 1 0.192251 0.039288 0.500000 
120 1 0.201945 0.056473 0.500000 
121 1 0.212274 0.039967 0.500000 
122 1 0.221966 0.057168 0.500000 
123 1 0.232293 0.040654 0.500000 
124 1 0.241982 0.057863 0.500000 
125 1 0.252309 0.041345 0.500000 
126 1 0.261994 0.058570 0.500000 
127 1 0.272318 0.042042 0.500000 
128 1 0.282002 0.059282 0.500000 
129 1 0.292324 0.042743 0.500000 
130 1 0.302002 0.059996 0.500000 
131 1 0.312323 0.043447 0.500000 
132 1 0.321996 0.060714 0.500000 
133 1 0.332314 0.044150 0.500000 
134 1 0.341980 0.061430 0.500000 
135 1 0.352297 0.044856 0.500000 
136 1 0.361956 0.062145 0.500000 
137 1 0.372273 0.045557 0.500000 
138 1 0.381925 0.062858 0.500000 
139 1 0.392240 0.046254 0.500000 
140 1 0.401885 0.063567 0.500000 
141 1 0.412198 0.046944 0.500000 
142 1 0.421835 0.064262 0.500000 
143 1 0.432147 0.047626 0.500000 
144 1 0.441775 0.064951 0.500000 
145 1 0.452087 0.048297 0.500000 
146 1 0.461707 0.065630 0.500000 
147 1 0.472018 0.048954 0.500000 
148 1 0.481632 0.066291 0.500000 
149 1 0.491940 0.049595 0.500000 
150 1 0.501551 0.066929 0.500000 
151 1 0.511855 0.050220 0.500000 
152 1 0.521462 0.067555 0.500000 
153 1 0.531762 0.050823 0.500000 
154 1 0.541367 0.068153 0.500000 
155 1 0.551663 0.051406 0.500000 
156 1 0.561267 0.068730 0.500000 
157 1 0.571560 0.051966 0.500000 
158 1 0.581166 0.069278 0.500000 
159 1 0.591452 0.052503 0.500000 
160 1 0.601062 0.069810 0.500000 
161 1 0.611341 0.053013 0.500000 
162 1 0.620957 0.070308 0.500000 
163 1 0.631230 0.053499 0.500000 
164 1 0.640852 0.070780 0.500000 
165 1 0.651117 0.053960 0.500000 
166 1 0.660748 0.071228 0.500000 
167 1 0.671006 0.054396 0.500000 
168 1 0.680644 0.071649 0.500000 
169 1 0.690897 0.054806 0.500000 
170 1 0.700546 0.072045 0.500000 
171 1 0.710789 0.055192 0.500000 
172 1 0.720451 0.072419 0.500000 
173 1 0.730685 0.055554 0.500000 
174 1 0.740356 0.072764 0.500000 
175 1 0.750586 0.055894 0.500000 
176 1 0.760266 0.073091 0.500000 
177 1 0.770490 0.056213 0.500000 
178 1 0.780181 0.073398 0.500000 
179 1 0.790400 0.056511 0.500000 
180 1 0.800100 0.073681 0.500000 
181 1 0.810316 0.056789 0.500000 
182 1 0.820024 0.073948 0.500000 
183 1 0.830238 0.057049 0.500000 
184 1 0.839953 0.074197 0.500000 
185 1 0.850164 0.057294 0.500000 
186 1 0.859886 0.074429 0.500000 
187 1 0.870095 0.057522 0.500000 
188 1 0.879826 0.074645 0.500000 
189 1 0.890032 0.057734 0.500000 
190 1 0.899773 0.074848 0.500000 
191 1 0.909975 0.057934 0.500000 
192 1 0.919722 0.075042 0.500000 
193 1 0.929922 0.058120 0.500000 
194 1 0.939672 0.075219 0.500000 
195 1 0.949875 0.058294 0.500000 
196 1 0.959621 0.075390 0.500000 
197 1 0.969833 0.058458 0.500000 
198 1 0.979588 0.075542 0.500000 
199 1 0.989796 0.058613 0.500000 
200 1 0.999557 0.075685 0.500000 
201 1 0.011275 0.067077 0.500000 
202 1 0.020924 0.084144 0.500000 
203 1 0.031308 0.067688 0.500000 
204 1 0.040959 0.084763 0.500000 
205 1 0.051342 0.068307 0.500000 
206 1 0.060994 0.085390 0.500000 
207 1 0.071376 0.068936 0.500000 
208 1 0.081040 0.086039 0.500000 
209 1 0.091422 0.069590 0.500000 
210 1 0.101088 0.086706 0.500000 
211 1 0.111464 0.070250 0.500000 
212 1 0.121133 0.087380 0.500000 
213 1 0.131506 0.070917 0.500000 
214 1 0.141174 0.088061 0.500000 
215 1 0.151543 0.071593 0.500000 
216 1 0.161212 0.088753 0.500000 
217 1 0.171574 0.072278 0.500000 
218 1 0.181246 0.089453 0.500000 
219 1 0.191601 0.072968 0.500000 
220 1 0.201273 0.090157 0.500000 
221 1 0.211627 0.073668 0.500000 
222 1 0.221298 0.090873 0.500000 
223 1 0.231650 0.074376 0.500000 
224 1 0.241318 0.091595 0.500000 
225 1 0.251663 0.075087 0.500000 
226 1 0.261331 0.092324 0.500000 
227 1 0.271672 0.075808 0.500000 
228 1 0.281338 0.093064 0.500000 
229 1 0.291674 0.076536 0.500000 
230 1 0.301337 0.093800 0.500000 
231 1 0.311669 0.077262 0.500000 
232 1 0.321326 0.094544 0.500000 
233 1 0.331659 0.077996 0.500000 
234 1 0.341310 0.095293 0.500000 
235 1 0.351637 0.078725 0.500000 
236 1 0.361283 0.096035 0.500000 
237 1 0.371606 0.079451 0.500000 
238 1 0.381247 0.096774 0.500000 
239 1 0.391568 0.080179 0.500000 
240 1 0.401205 0.097508 0.500000 
241 1 0.411524 0.080891 0.500000 
242 1 0.421152 0.098232 0.500000 
243 1 0.431467 0.081597 0.500000 
244 1 0.441090 0.098948 0.500000 
245 1 0.451399 0.082293 0.500000 
246 1 0.461019 0.099646 0.500000 
247 1 0.471326 0.082974 0.500000 
248 1 0.480943 0.100329 0.500000 
249 1 0.491249 0.083634 0.500000 
250 1 0.500859 0.100991 0.500000 
251 1 0.511160 0.084276 0.500000 
252 1 0.520770 0.101629 0.500000 
253 1 0.531070 0.084895 0.500000 
254 1 0.540679 0.102243 0.500000 
255 1 0.550975 0.085491 0.500000 
256 1 0.560586 0.102831 0.500000 
257 1 0.570876 0.086055 0.500000 
258 1 0.580489 0.103383 0.500000 
259 1 0.590775 0.086596 0.500000 
260 1 0.600394 0.103911 0.500000 
261 1 0.610677 0.087113 0.500000 
262 1 0.620301 0.104410 0.500000 
263 1 0.630579 0.087598 0.500000 
264 1 0.640207 0.104884 0.500000 
265 1 0.650480 0.088057 0.500000 
266 1 0.660115 0.105330 0.500000 
267 1 0.670384 0.088491 0.500000 
268 1 0.680030 0.105744 0.500000 
269 1 0.690294 0.088895 0.500000 
270 1 0.699949 0.106136 0.500000 
271 1 0.710205 0.089279 0.500000 
272 1 0.719868 0.106506 0.500000 
273 1 0.730118 0.089636 0.500000 
274 1 0.739788 0.106846 0.500000 
275 1 0.750032 0.089968 0.500000 
276 1 0.759711 0.107167 0.500000 
277 1 0.769950 0.090282 0.500000 
278 1 0.779641 0.107464 0.500000 
279 1 0.789876 0.090573 0.500000 
280 1 0.799575 0.107746 0.500000 
281 1 0.809803 0.090847 0.500000 
282 1 0.819511 0.108006 0.500000 
283 1 0.829736 0.091101 0.500000 
284 1 0.839448 0.108249 0.500000 
285 1 0.849671 0.091339 0.500000 
286 1 0.859392 0.108472 0.500000 
287 1 0.869612 0.091558 0.500000 
288 1 0.879337 0.108684 0.500000 
289 1 0.889557 0.091765 0.500000 
290 1 0.899287 0.108884 0.500000 
291 1 0.909506 0.091961 0.500000 
292 1 0.919241 0.109069 0.500000 
293 1 0.929458 0.092146 0.500000 
294 1 0.939197 0.109251 0.500000 
295 1 0.949407 0.092323 0.500000 
296 1 0.959160 0.109410 0.500000 
297 1 0.969375 0.092475 0.500000 
298 1 0.979136 0.109550 0.500000 
299 1 0.989349 0.092617 0.500000 
300 1 0.999117 0.109681 0.500000 
301 1 0.010532 0.100598 0.500000 
302 1 0.020165 0.117663 0.500000 
303 1 0.030566 0.101214 0.500000 
304 1 0.040201 0.118287 0.500000 
305 1 0.050602 0.101839 0.500000 
306 1 0.060239 0.118920 0.500000 
307 1 0.070640 0.102476 0.500000 
308 1 0.080290 0.119581 0.500000 
309 1 0.090696 0.103149 0.500000 
310 1 0.100341 0.120268 0.500000 
311 1 0.110745 0.103830 0.500000 
312 1 0.120394 0.120960 0.500000 
313 1 0.130794 0.104517 0.500000 
314 1 0.140443 0.121664 0.500000 
315 1 0.150837 0.105213 0.500000 
316 1 0.160487 0.122375 0.500000 
317 1 0.170878 0.105921 0.500000 
318 1 0.180530 0.123097 0.500000 
319 1 0.190914 0.106637 0.500000 
320 1 0.200568 0.123833 0.500000 
321 1 0.210942 0.107361 0.500000 
322 1 0.220598 0.124573 0.500000 
323 1 0.230965 0.108090 0.500000 
324 1 0.240619 0.125320 0.500000 
325 1 0.250981 0.108829 0.500000 
326 1 0.260632 0.126078 0.500000 
327 1 0.270990 0.109577 0.500000 
328 1 0.280643 0.126838 0.500000 
329 1 0.290997 0.110327 0.500000 
330 1 0.300644 0.127609 0.500000 
331 1 0.310991 0.111083 0.500000 
332 1 0.320636 0.128380 0.500000 
333 1 0.330976 0.111843 0.500000 
334 1 0.340619 0.129155 0.500000 
335 1 0.350955 0.112604 0.500000 
336 1 0.360594 0.129927 0.500000 
337 1 0.370924 0.113359 0.500000 
338 1 0.380562 0.130699 0.500000 
339 1 0.390886 0.114112 0.500000 
340 1 0.400519 0.131466 0.500000 
341 1 0.410837 0.114855 0.500000 
342 1 0.420465 0.132221 0.500000 
343 1 0.430778 0.115590 0.500000 
344 1 0.440402 0.132963 0.500000 
345 1 0.450713 0.116312 0.500000 
346 1 0.460331 0.133692 0.500000 
347 1 0.470639 0.117015 0.500000 
348 1 0.480254 0.134398 0.500000 
349 1 0.490555 0.117697 0.500000 
350 1 0.500168 0.135076 0.500000 
351 1 0.510468 0.118356 0.500000 
352 1 0.520080 0.135730 0.500000 
353 1 0.530379 0.118988 0.500000 
354 1 0.539992 0.136355 0.500000 
355 1 0.550287 0.119596 0.500000 
356 1 0.559904 0.136946 0.500000 
357 1 0.570198 0.120169 0.500000 
358 1 0.579818 0.137509 0.500000 
359 1 0.590106 0.120710 0.500000 
360 1 0.599732 0.138037 0.500000 
361 1 0.610017 0.121224 0.500000 
362 1 0.619645 0.138537 0.500000 
363 1 0.629927 0.121710 0.500000 
364 1 0.639561 0.139004 0.500000 
365 1 0.649841 0.122165 0.500000 
366 1 0.659481 0.139439 0.500000 
367 1 0.669762 0.122593 0.500000 
368 1 0.679409 0.139851 0.500000 
369 1 0.689682 0.122992 0.500000 
370 1 0.699338 0.140238 0.500000 
371 1 0.709603 0.123373 0.500000 
372 1 0.719270 0.140602 0.500000 
373 1 0.729529 0.123725 0.500000 
374 1 0.739203 0.140938 0.500000 
375 1 0.749458 0.124050 0.500000 
376 1 0.759139 0.141248 0.500000 
377 1 0.769393 0.124357 0.500000 
378 1 0.779081 0.141541 0.500000 
379 1 0.789331 0.124641 0.500000 
380 1 0.799025 0.141814 0.500000 
381 1 0.809273 0.124911 0.500000 
382 1 0.818974 0.142069 0.500000 
383 1 0.829217 0.125160 0.500000 
384 1 0.838926 0.142306 0.500000 
385 1 0.849163 0.125388 0.500000 
386 1 0.858881 0.142524 0.500000 
387 1 0.869111 0.125604 0.500000 
388 1 0.878838 0.142730 0.500000 
389 1 0.889063 0.125806 0.500000 
390 1 0.898795 0.142923 0.500000 
391 1 0.909019 0.125995 0.500000 
392 1 0.918759 0.143101 0.500000 
393 1 0.928979 0.126176 0.500000 
394 1 0.938727 0.143276 0.500000 
395 1 0.948940 0.126349 0.500000 
396 1 0.958701 0.143428 0.500000 
397 1 0.968919 0.126487 0.500000 
398 1 0.978689 0.143555 0.500000 
399 1 0.988905 0.126616 0.500000 
400 1 0.998682 0.143674 0.500000 
401 1 0.009754 0.134110 0.500000 
402 1 0.019367 0.151171 0.500000 
403 1 0.029790 0.134729 0.500000 
404 1 0.039403 0.151799 0.500000 
405 1 0.049825 0.135360 0.500000 
406 1 0.059442 0.152437 0.500000 
407 1 0.069865 0.136003 0.500000 
408 1 0.079498 0.153112 0.500000 
409 1 0.089925 0.136695 0.500000 
410 1 0.099558 0.153813 0.500000 
411 1 0.109982 0.137392 0.500000 
412 1 0.119616 0.154527 0.500000 
413 1 0.130035 0.138102 0.500000 
414 1 0.139673 0.155248 0.500000 
415 1 0.150087 0.138820 0.500000 
416 1 0.159726 0.155985 0.500000 
417 1 0.170134 0.139547 0.500000 
418 1 0.179772 0.156730 0.500000 
419 1 0.190175 0.140286 0.500000 
420 1 0.199813 0.157483 0.500000 
421 1 0.210215 0.141037 0.500000 
422 1 0.219851 0.158252 0.500000 
423 1 0.230246 0.141796 0.500000 
424 1 0.239881 0.159030 0.500000 
425 1 0.250268 0.142563 0.500000 
426 1 0.259906 0.159814 0.500000 
427 1 0.270285 0.143336 0.500000 
428 1 0.279923 0.160609 0.500000 
429 1 0.290291 0.144117 0.500000 
430 1 0.299930 0.161408 0.500000 
431 1 0.310290 0.144902 0.500000 
432 1 0.319928 0.162213 0.500000 
433 1 0.330280 0.145693 0.500000 
434 1 0.339917 0.163024 0.500000 
435 1 0.350260 0.146485 0.500000 
436 1 0.359895 0.163831 0.500000 
437 1 0.370229 0.147271 0.500000 
438 1 0.379860 0.164637 0.500000 
439 1 0.390190 0.148060 0.500000 
440 1 0.399819 0.165436 0.500000 
441 1 0.410144 0.148837 0.500000 
442 1 0.419766 0.166228 0.500000 
443 1 0.430086 0.149603 0.500000 
444 1 0.439703 0.167003 0.500000 
445 1 0.450019 0.150354 0.500000 
446 1 0.459634 0.167757 0.500000 
447 1 0.469946 0.151083 0.500000 
448 1 0.479557 0.168487 0.500000 
449 1 0.489865 0.151788 0.500000 
450 1 0.499473 0.169190 0.500000 
451 1 0.509780 0.152464 0.500000 
452 1 0.519387 0.169855 0.500000 
453 1 0.529696 0.153109 0.500000 
454 1 0.539304 0.170490 0.500000 
455 1 0.549609 0.153721 0.500000 
456 1 0.559221 0.171092 0.500000 
457 1 0.569521 0.154301 0.500000 
458 1 0.579139 0.171654 0.500000 
459 1 0.589438 0.154847 0.500000 
460 1 0.599061 0.172183 0.500000 
461 1 0.609357 0.155362 0.500000 
462 1 0.618985 0.172682 0.500000 
463 1 0.629276 0.155841 0.500000 
464 1 0.638911 0.173142 0.500000 
465 1 0.649202 0.156292 0.500000 
466 1 0.658842 0.173576 0.500000 
467 1 0.669128 0.156710 0.500000 
468 1 0.678775 0.173977 0.500000 
469 1 0.689059 0.157106 0.500000 
470 1 0.698713 0.174356 0.500000 
471 1 0.708995 0.157479 0.500000 
472 1 0.718657 0.174712 0.500000 
473 1 0.728935 0.157824 0.500000 
474 1 0.738604 0.175038 0.500000 
475 1 0.748879 0.158143 0.500000 
476 1 0.758555 0.175342 0.500000 
477 1 0.768824 0.158441 0.500000 
478 1 0.778511 0.175628 0.500000 
479 1 0.788772 0.158721 0.500000 
480 1 0.798469 0.175888 0.500000 
481 1 0.808725 0.158977 0.500000 
482 1 0.818429 0.176138 0.500000 
483 1 0.828680 0.159222 0.500000 
484 1 0.838394 0.176366 0.500000 
485 1 0.848640 0.159445 0.500000 
486 1 0.858363 0.176577 0.500000 
487 1 0.868604 0.159653 0.500000 
488 1 0.878334 0.176776 0.500000 
489 1 0.888568 0.159851 0.500000 
490 1 0.898306 0.176961 0.500000 
491 1 0.908535 0.160031 0.500000 
492 1 0.918282 0.177134 0.500000 
493 1 0.928505 0.160204 0.500000 
494 1 0.938263 0.177298 0.500000 
495 1 0.948477 0.160370 0.500000 
496 1 0.958249 0.177440 0.500000 
497 1 0.968470 0.160496 0.500000 
498 1 0.978251 0.177553 0.500000 
499 1 0.988467 0.160611 0.500000 
500 1 0.998258 0.177659 0.500000 
501 1 0.008938 0.167610 0.500000 
502 1 0.018532 0.184668 0.500000 
503 1 0.028972 0.168234 0.500000 
504 1 0.038566 0.185299 0.500000 
505 1 0.049008 0.168868 0.500000 
506 1 0.058602 0.185942 0.500000 
507 1 0.069047 0.169517 0.500000 
508 1 0.078661 0.186624 0.500000 
509 1 0.089115 0.170223 0.500000 
510 1 0.098723 0.187341 0.500000 
511 1 0.109179 0.170941 0.500000 
512 1 0.118788 0.188073 0.500000 
513 1 0.129238 0.171666 0.500000 
514 1 0.138849 0.188813 0.500000 
515 1 0.149296 0.172403 0.500000 
516 1 0.158908 0.189568 0.500000 
517 1 0.169351 0.173159 0.500000 
518 1 0.178968 0.190337 0.500000 
519 1 0.189401 0.173919 0.500000 
520 1 0.199021 0.191116 0.500000 
521 1 0.209444 0.174691 0.500000 
522 1 0.219067 0.191912 0.500000 
523 1 0.229482 0.175480 0.500000 
524 1 0.239108 0.192718 0.500000 
525 1 0.249514 0.176276 0.500000 
526 1 0.259143 0.193535 0.500000 
527 1 0.269538 0.177080 0.500000 
528 1 0.279168 0.194362 0.500000 
529 1 0.289556 0.177896 0.500000 
530 1 0.299185 0.195197 0.500000 
531 1 0.309564 0.178715 0.500000 
532 1 0.319190 0.196043 0.500000 
533 1 0.329559 0.179543 0.500000 
534 1 0.339186 0.196890 0.500000 
535 1 0.349546 0.180370 0.500000 
536 1 0.359171 0.197739 0.500000 
537 1 0.369522 0.181198 0.500000 
538 1 0.379142 0.198584 0.500000 
539 1 0.389486 0.182019 0.500000 
540 1 0.399097 0.199428 0.500000 
541 1 0.409435 0.182837 0.500000 
542 1 0.419043 0.200258 0.500000 
543 1 0.429375 0.183639 0.500000 
544 1 0.438983 0.201065 0.500000 
545 1 0.449310 0.184419 0.500000 
546 1 0.458913 0.201854 0.500000 
547 1 0.469236 0.185174 0.500000 
548 1 0.478836 0.202609 0.500000 
549 1 0.489156 0.185904 0.500000 
550 1 0.498758 0.203330 0.500000 
551 1 0.509074 0.186599 0.500000 
552 1 0.518679 0.204016 0.500000 
553 1 0.528990 0.187253 0.500000 
554 1 0.538596 0.204656 0.500000 
555 1 0.548911 0.187875 0.500000 
556 1 0.558517 0.205261 0.500000 
557 1 0.568834 0.188461 0.500000 
558 1 0.578444 0.205825 0.500000 
559 1 0.588757 0.189004 0.500000 
560 1 0.598371 0.206354 0.500000 
561 1 0.608681 0.189520 0.500000 
562 1 0.618304 0.206844 0.500000 
563 1 0.628611 0.189994 0.500000 
564 1 0.638240 0.207301 0.500000 
565 1 0.648544 0.190440 0.500000 
566 1 0.658183 0.207726 0.500000 
567 1 0.668484 0.190852 0.500000 
568 1 0.678128 0.208117 0.500000 
569 1 0.688427 0.191236 0.500000 
570 1 0.698081 0.208486 0.500000 
571 1 0.708373 0.191598 0.500000 
572 1 0.718039 0.208827 0.500000 
573 1 0.728327 0.191933 0.500000 
574 1 0.738002 0.209147 0.500000 
575 1 0.748284 0.192245 0.500000 
576 1 0.757967 0.209446 0.500000 
577 1 0.768244 0.192534 0.500000 
578 1 0.777935 0.209720 0.500000 
579 1 0.788209 0.192804 0.500000 
580 1 0.797907 0.209973 0.500000 
581 1 0.808174 0.193054 0.500000 
582 1 0.817882 0.210210 0.500000 
583 1 0.828143 0.193288 0.500000 
584 1 0.837864 0.210426 0.500000 
585 1 0.848117 0.193501 0.500000 
586 1 0.857849 0.210627 0.500000 
587 1 0.868095 0.193701 0.500000 
588 1 0.877835 0.210816 0.500000 
589 1 0.888074 0.193889 0.500000 
590 1 0.897823 0.210992 0.500000 
591 1 0.908054 0.194061 0.500000 
592 1 0.917812 0.211156 0.500000 
593 1 0.928038 0.194227 0.500000 
594 1 0.937807 0.211312 0.500000 
595 1 0.948021 0.194385 0.500000 
596 1 0.957807 0.211443 0.500000 
597 1 0.968031 0.194496 0.500000 
598 1 0.977825 0.211543 0.500000 
599 1 0.988043 0.194599 0.500000 
600 1 0.997847 0.211634 0.500000 
601 1 0.008083 0.201103 0.500000 
602 1 0.017654 0.218157 0.500000 
603 1 0.028113 0.201727 0.500000 
604 1 0.037684 0.218790 0.500000 
605 1 0.048147 0.202367 0.500000 
606 1 0.057718 0.219436 0.500000 
607 1 0.068185 0.203017 0.500000 
608 1 0.077778 0.220126 0.500000 
609 1 0.088255 0.203737 0.500000 
610 1 0.097841 0.220857 0.500000 
611 1 0.108318 0.204466 0.500000 
612 1 0.117904 0.221598 0.500000 
613 1 0.128383 0.205211 0.500000 
614 1 0.137970 0.222356 0.500000 
615 1 0.148448 0.205967 0.500000 
616 1 0.158038 0.223128 0.500000 
617 1 0.168512 0.206737 0.500000 
618 1 0.178105 0.223917 0.500000 
619 1 0.188573 0.207525 0.500000 
620 1 0.198167 0.224726 0.500000 
621 1 0.208625 0.208326 0.500000 
622 1 0.218226 0.225542 0.500000 
623 1 0.228678 0.209140 0.500000 
624 1 0.238279 0.226382 0.500000 
625 1 0.248722 0.209968 0.500000 
626 1 0.258328 0.227230 0.500000 
627 1 0.268760 0.210808 0.500000 
628 1 0.278367 0.228097 0.500000 
629 1 0.288786 0.211658 0.500000 
630 1 0.298393 0.228976 0.500000 
631 1 0.308802 0.212520 0.500000 
632 1 0.318413 0.229859 0.500000 
633 1 0.328809 0.213387 0.500000 
634 1 0.338417 0.230758 0.500000 
635 1 0.348802 0.214260 0.500000 
636 1 0.358408 0.231651 0.500000 
637 1 0.368782 0.215129 0.500000 
638 1 0.378384 0.232547 0.500000 
639 1 0.388747 0.215997 0.500000 
640 1 0.398346 0.233435 0.500000 
641 1 0.408701 0.216856 0.500000 
642 1 0.418300 0.234304 0.500000 
643 1 0.428648 0.217694 0.500000 
644 1 0.438239 0.235158 0.500000 
645 1 0.448580 0.218514 0.500000 
646 1 0.458171 0.235978 0.500000 
647 1 0.468508 0.219304 0.500000 
648 1 0.478098 0.236765 0.500000 
649 1 0.488432 0.220053 0.500000 
650 1 0.498019 0.237509 0.500000 
651 1 0.508353 0.220765 0.500000 
652 1 0.517940 0.238206 0.500000 
653 1 0.528274 0.221436 0.500000 
654 1 0.537863 0.238858 0.500000 
655 1 0.548194 0.222061 0.500000 
656 1 0.557789 0.239460 0.500000 
657 1 0.568120 0.222641 0.500000 
658 1 0.577721 0.240023 0.500000 
659 1 0.588051 0.223189 0.500000 
660 1 0.597659 0.240543 0.500000 
661 1 0.607987 0.223694 0.500000 
662 1 0.617604 0.241027 0.500000 
663 1 0.627927 0.224164 0.500000 
664 1 0.637554 0.241476 0.500000 
665 1 0.647872 0.224598 0.500000 
666 1 0.657512 0.241888 0.500000 
667 1 0.667825 0.225003 0.500000 
668 1 0.677475 0.242269 0.500000 
669 1 0.687780 0.225373 0.500000 
670 1 0.697442 0.242621 0.500000 
671 1 0.707746 0.225723 0.500000 
672 1 0.717414 0.242956 0.500000 
673 1 0.727714 0.226050 0.500000 
674 1 0.737391 0.243266 0.500000 
675 1 0.747683 0.226357 0.500000 
676 1 0.757375 0.243552 0.500000 
677 1 0.767657 0.226638 0.500000 
678 1 0.777363 0.243812 0.500000 
679 1 0.787637 0.226893 0.500000 
680 1 0.797353 0.244055 0.500000 
681 1 0.807619 0.227131 0.500000 
682 1 0.817347 0.244277 0.500000 
683 1 0.827606 0.227350 0.500000 
684 1 0.837344 0.244483 0.500000 
685 1 0.847597 0.227554 0.500000 
686 1 0.857345 0.244673 0.500000 
687 1 0.867591 0.227745 0.500000 
688 1 0.877348 0.244853 0.500000 
689 1 0.887585 0.227921 0.500000 
690 1 0.897352 0.245015 0.500000 
691 1 0.907584 0.228087 0.500000 
692 1 0.917359 0.245173 0.500000 
693 1 0.927584 0.228241 0.500000 
694 1 0.937369 0.245318 0.500000 
695 1 0.947580 0.228392 0.500000 
696 1 0.957383 0.245436 0.500000 
697 1 0.967605 0.228489 0.500000 
698 1 0.977417 0.245522 0.500000 
699 1 0.987634 0.228577 0.500000 
700 1 0.997455 0.245600 0.500000 
701 1 0.007189 0.234587 0.500000 
702 1 0.016737 0.251640 0.500000 
703 1 0.027214 0.235215 0.500000 
704 1 0.036760 0.252274 0.500000 
705 1 0.047243 0.235854 0.500000 
706 1 0.056787 0.252921 0.500000 
707 1 0.067275 0.236508 0.500000 
708 1 0.076839 0.253616 0.500000 
709 1 0.087342 0.237239 0.500000 
710 1 0.096900 0.254356 0.500000 
711 1 0.107409 0.237981 0.500000 
712 1 0.116967 0.255108 0.500000 
713 1 0.127477 0.238735 0.500000 
714 1 0.137038 0.255877 0.500000 
715 1 0.147547 0.239508 0.500000 
716 1 0.157111 0.256666 0.500000 
717 1 0.167616 0.240296 0.500000 
718 1 0.177184 0.257472 0.500000 
719 1 0.187686 0.241106 0.500000 
720 1 0.197259 0.258298 0.500000 
721 1 0.207755 0.241929 0.500000 
722 1 0.217327 0.259149 0.500000 
723 1 0.227816 0.242775 0.500000 
724 1 0.237396 0.260016 0.500000 
725 1 0.247875 0.243634 0.500000 
726 1 0.257459 0.260902 0.500000 
727 1 0.267925 0.244511 0.500000 
728 1 0.277511 0.261808 0.500000 
729 1 0.287965 0.245406 0.500000 
730 1 0.297557 0.262729 0.500000 
731 1 0.307995 0.246308 0.500000 
732 1 0.317587 0.263669 0.500000 
733 1 0.328009 0.247227 0.500000 
734 1 0.337604 0.264613 0.500000 
735 1 0.348015 0.248148 0.500000 
736 1 0.357606 0.265565 0.500000 
737 1 0.368005 0.249071 0.500000 
738 1 0.377591 0.266517 0.500000 
739 1 0.387978 0.249991 0.500000 
740 1 0.397561 0.267456 0.500000 
741 1 0.407938 0.250894 0.500000 
742 1 0.417511 0.268384 0.500000 
743 1 0.427884 0.251781 0.500000 
744 1 0.437451 0.269282 0.500000 
745 1 0.447821 0.252639 0.500000 
746 1 0.457385 0.270146 0.500000 
747 1 0.467749 0.253462 0.500000 
748 1 0.477311 0.270965 0.500000 
749 1 0.487674 0.254244 0.500000 
750 1 0.497237 0.271728 0.500000 
751 1 0.507597 0.254971 0.500000 
752 1 0.517166 0.272436 0.500000 
753 1 0.527521 0.255647 0.500000 
754 1 0.537095 0.273091 0.500000 
755 1 0.547451 0.256278 0.500000 
756 1 0.557034 0.273693 0.500000 
757 1 0.567386 0.256859 0.500000 
758 1 0.576978 0.274251 0.500000 
759 1 0.587326 0.257397 0.500000 
760 1 0.596929 0.274762 0.500000 
761 1 0.607272 0.257892 0.500000 
762 1 0.616889 0.275231 0.500000 
763 1 0.627226 0.258353 0.500000 
764 1 0.636857 0.275668 0.500000 
765 1 0.647187 0.258777 0.500000 
766 1 0.656834 0.276064 0.500000 
767 1 0.667159 0.259166 0.500000 
768 1 0.676816 0.276433 0.500000 
769 1 0.687134 0.259527 0.500000 
770 1 0.696802 0.276775 0.500000 
771 1 0.707111 0.259864 0.500000 
772 1 0.716796 0.277091 0.500000 
773 1 0.727096 0.260177 0.500000 
774 1 0.736792 0.277387 0.500000 
775 1 0.747086 0.260468 0.500000 
776 1 0.756792 0.277658 0.500000 
777 1 0.767079 0.260734 0.500000 
778 1 0.776797 0.277907 0.500000 
779 1 0.787077 0.260980 0.500000 
780 1 0.796808 0.278136 0.500000 
781 1 0.807080 0.261207 0.500000 
782 1 0.816825 0.278345 0.500000 
783 1 0.827085 0.261415 0.500000 
784 1 0.836842 0.278541 0.500000 
785 1 0.847092 0.261605 0.500000 
786 1 0.856857 0.278719 0.500000 
787 1 0.867102 0.261784 0.500000 
788 1 0.876878 0.278881 0.500000 
789 1 0.887115 0.261947 0.500000 
790 1 0.896899 0.279035 0.500000 
791 1 0.907129 0.262103 0.500000 
792 1 0.916921 0.279179 0.500000 
793 1 0.927144 0.262247 0.500000 
794 1 0.936947 0.279314 0.500000 
795 1 0.947159 0.262387 0.500000 
796 1 0.956982 0.279417 0.500000 
797 1 0.967200 0.262468 0.500000 
798 1 0.977036 0.279488 0.500000 
799 1 0.987245 0.262544 0.500000 
800 1 0.997089 0.279555 0.500000 
801 1 0.006256 0.268068 0.500000 
802 1 0.015779 0.285121 0.500000 
803 1 0.026272 0.268696 0.500000 
804 1 0.035792 0.285753 0.500000 
805 1 0.046292 0.269335 0.500000 
806 1 0.055810 0.286400 0.500000 
807 1 0.066319 0.269991 0.500000 
808 1 0.075856 0.287097 0.500000 
809 1 0.086381 0.270728 0.500000 
810 1 0.095912 0.287841 0.500000 
811 1 0.106445 0.271475 0.500000 
812 1 0.115972 0.288598 0.500000 
813 1 0.126515 0.272241 0.500000 
814 1 0.136042 0.289376 0.500000 
815 1 0.146588 0.273025 0.500000 
816 1 0.156120 0.290175 0.500000 
817 1 0.166664 0.273829 0.500000 
818 1 0.176199 0.290995 0.500000 
819 1 0.186739 0.274651 0.500000 
820 1 0.196276 0.291844 0.500000 
821 1 0.206812 0.275505 0.500000 
822 1 0.216357 0.292715 0.500000 
823 1 0.226888 0.276376 0.500000 
824 1 0.236439 0.293612 0.500000 
825 1 0.246964 0.277269 0.500000 
826 1 0.256517 0.294539 0.500000 
827 1 0.267030 0.278188 0.500000 
828 1 0.276588 0.295485 0.500000 
829 1 0.287087 0.279120 0.500000 
830 1 0.296648 0.296458 0.500000 
831 1 0.307132 0.280079 0.500000 
832 1 0.316697 0.297448 0.500000 
833 1 0.327166 0.281048 0.500000 
834 1 0.336731 0.298454 0.500000 
835 1 0.347184 0.282027 0.500000 
836 1 0.356747 0.299470 0.500000 
837 1 0.367184 0.283011 0.500000 
838 1 0.376744 0.300487 0.500000 
839 1 0.387166 0.283989 0.500000 
840 1 0.396720 0.301502 0.500000 
841 1 0.407127 0.284959 0.500000 
842 1 0.416679 0.302493 0.500000 
843 1 0.427076 0.285903 0.500000 
844 1 0.436621 0.303452 0.500000 
845 1 0.447012 0.286810 0.500000 
846 1 0.456552 0.304363 0.500000 
847 1 0.466942 0.287673 0.500000 
848 1 0.476481 0.305212 0.500000 
849 1 0.486869 0.288475 0.500000 
850 1 0.496408 0.305994 0.500000 
851 1 0.506795 0.289217 0.500000 
852 1 0.516342 0.306708 0.500000 
853 1 0.526729 0.289903 0.500000 
854 1 0.536288 0.307363 0.500000 
855 1 0.546672 0.290527 0.500000 
856 1 0.556244 0.307956 0.500000 
857 1 0.566621 0.291104 0.500000 
858 1 0.576208 0.308504 0.500000 
859 1 0.586577 0.291632 0.500000 
860 1 0.596183 0.308996 0.500000 
861 1 0.606543 0.292111 0.500000 
862 1 0.616163 0.309451 0.500000 
863 1 0.626517 0.292559 0.500000 
864 1 0.636155 0.309868 0.500000 
865 1 0.646500 0.292965 0.500000 
866 1 0.656154 0.310250 0.500000 
867 1 0.666491 0.293341 0.500000 
868 1 0.676159 0.310607 0.500000 
869 1 0.686486 0.293690 0.500000 
870 1 0.696170 0.310931 0.500000 
871 1 0.706487 0.294009 0.500000 
872 1 0.716186 0.311231 0.500000 
873 1 0.726491 0.294308 0.500000 
874 1 0.736205 0.311512 0.500000 
875 1 0.746500 0.294583 0.500000 
876 1 0.756231 0.311765 0.500000 
877 1 0.766517 0.294835 0.500000 
878 1 0.776259 0.311999 0.500000 
879 1 0.786537 0.295067 0.500000 
880 1 0.796291 0.312216 0.500000 
881 1 0.806561 0.295278 0.500000 