ITEM: TIMESTEP
4500
ITEM: NUMBER OF ATOMS
2850
ITEM: BOX BOUNDS ss ss pp
-28.0536 28.3253 
-28.9988 28.9984 
-0.5 0.5 
ITEM: ATOMS id type xs ys zs
1 1 0.012661 0.000000 0.500000 
2 1 0.022340 0.017073 0.500000 
3 1 0.032688 0.000597 0.500000 
4 1 0.042369 0.017677 0.500000 
5 1 0.052715 0.001202 0.500000 
6 1 0.062397 0.018289 0.500000 
7 1 0.072742 0.001814 0.500000 
8 1 0.082426 0.018911 0.500000 
9 1 0.092767 0.002433 0.500000 
10 1 0.102455 0.019539 0.500000 
11 1 0.112794 0.003060 0.500000 
12 1 0.122484 0.020177 0.500000 
13 1 0.132817 0.003697 0.500000 
14 1 0.142511 0.020822 0.500000 
15 1 0.152841 0.004338 0.500000 
16 1 0.162536 0.021475 0.500000 
17 1 0.172861 0.004988 0.500000 
18 1 0.182559 0.022136 0.500000 
19 1 0.192879 0.005643 0.500000 
20 1 0.202579 0.022803 0.500000 
21 1 0.212895 0.006305 0.500000 
22 1 0.222596 0.023475 0.500000 
23 1 0.232906 0.006973 0.500000 
24 1 0.242610 0.024155 0.500000 
25 1 0.252912 0.007645 0.500000 
26 1 0.262618 0.024839 0.500000 
27 1 0.272914 0.008319 0.500000 
28 1 0.282622 0.025527 0.500000 
29 1 0.292911 0.008997 0.500000 
30 1 0.302619 0.026217 0.500000 
31 1 0.312901 0.009676 0.500000 
32 1 0.322610 0.026908 0.500000 
33 1 0.332885 0.010356 0.500000 
34 1 0.342593 0.027600 0.500000 
35 1 0.352861 0.011033 0.500000 
36 1 0.362570 0.028289 0.500000 
37 1 0.372830 0.011707 0.500000 
38 1 0.382537 0.028974 0.500000 
39 1 0.392791 0.012376 0.500000 
40 1 0.402497 0.029655 0.500000 
41 1 0.412744 0.013039 0.500000 
42 1 0.422448 0.030326 0.500000 
43 1 0.432688 0.013694 0.500000 
44 1 0.442390 0.030989 0.500000 
45 1 0.452624 0.014337 0.500000 
46 1 0.462324 0.031639 0.500000 
47 1 0.472553 0.014968 0.500000 
48 1 0.482250 0.032276 0.500000 
49 1 0.492474 0.015584 0.500000 
50 1 0.502167 0.032896 0.500000 
51 1 0.512388 0.016184 0.500000 
52 1 0.522078 0.033498 0.500000 
53 1 0.532295 0.016766 0.500000 
54 1 0.541983 0.034081 0.500000 
55 1 0.552198 0.017330 0.500000 
56 1 0.561882 0.034643 0.500000 
57 1 0.572095 0.017873 0.500000 
58 1 0.581777 0.035184 0.500000 
59 1 0.591989 0.018396 0.500000 
60 1 0.601668 0.035702 0.500000 
61 1 0.611880 0.018896 0.500000 
62 1 0.621558 0.036195 0.500000 
63 1 0.631769 0.019373 0.500000 
64 1 0.641446 0.036666 0.500000 
65 1 0.651657 0.019829 0.500000 
66 1 0.661334 0.037110 0.500000 
67 1 0.671546 0.020261 0.500000 
68 1 0.681223 0.037533 0.500000 
69 1 0.691436 0.020670 0.500000 
70 1 0.701115 0.037931 0.500000 
71 1 0.711328 0.021058 0.500000 
72 1 0.721007 0.038307 0.500000 
73 1 0.731222 0.021423 0.500000 
74 1 0.740905 0.038660 0.500000 
75 1 0.751120 0.021768 0.500000 
76 1 0.760806 0.038993 0.500000 
77 1 0.771021 0.022094 0.500000 
78 1 0.780711 0.039305 0.500000 
79 1 0.790927 0.022399 0.500000 
80 1 0.800620 0.039597 0.500000 
81 1 0.810837 0.022687 0.500000 
82 1 0.820536 0.039873 0.500000 
83 1 0.830751 0.022958 0.500000 
84 1 0.840456 0.040130 0.500000 
85 1 0.850671 0.023211 0.500000 
86 1 0.860382 0.040369 0.500000 
87 1 0.870595 0.023449 0.500000 
88 1 0.880312 0.040595 0.500000 
89 1 0.890525 0.023674 0.500000 
90 1 0.900248 0.040807 0.500000 
91 1 0.910459 0.023884 0.500000 
92 1 0.920188 0.041005 0.500000 
93 1 0.930398 0.024080 0.500000 
94 1 0.940134 0.041192 0.500000 
95 1 0.950341 0.024267 0.500000 
96 1 0.960084 0.041368 0.500000 
97 1 0.970290 0.024443 0.500000 
98 1 0.980040 0.041531 0.500000 
99 1 0.990243 0.024606 0.500000 
100 1 1.000000 0.041686 0.500000 
101 1 0.011983 0.033545 0.500000 
102 1 0.021650 0.050615 0.500000 
103 1 0.032014 0.034148 0.500000 
104 1 0.041680 0.051227 0.500000 
105 1 0.052044 0.034760 0.500000 
106 1 0.061715 0.051847 0.500000 
107 1 0.072075 0.035381 0.500000 
108 1 0.081755 0.052482 0.500000 
109 1 0.092107 0.036012 0.500000 
110 1 0.101791 0.053127 0.500000 
111 1 0.112138 0.036650 0.500000 
112 1 0.121825 0.053780 0.500000 
113 1 0.132168 0.037297 0.500000 
114 1 0.141858 0.054442 0.500000 
115 1 0.152197 0.037952 0.500000 
116 1 0.161890 0.055111 0.500000 
117 1 0.172226 0.038617 0.500000 
118 1 0.181918 0.055789 0.500000 
119 1 0.192251 0.039288 0.500000 
120 1 0.201944 0.056475 0.500000 
121 1 0.212274 0.039967 0.500000 
122 1 0.221965 0.057170 0.500000 
123 1 0.232293 0.040654 0.500000 
124 1 0.241983 0.057867 0.500000 
125 1 0.252309 0.041345 0.500000 
126 1 0.261998 0.058571 0.500000 
127 1 0.272318 0.042042 0.500000 
128 1 0.282005 0.059285 0.500000 
129 1 0.292324 0.042743 0.500000 
130 1 0.302004 0.059999 0.500000 
131 1 0.312323 0.043447 0.500000 
132 1 0.321997 0.060713 0.500000 
133 1 0.332314 0.044150 0.500000 
134 1 0.341982 0.061433 0.500000 
135 1 0.352297 0.044856 0.500000 
136 1 0.361959 0.062147 0.500000 
137 1 0.372273 0.045557 0.500000 
138 1 0.381929 0.062859 0.500000 
139 1 0.392240 0.046254 0.500000 
140 1 0.401888 0.063568 0.500000 
141 1 0.412198 0.046944 0.500000 
142 1 0.421837 0.064265 0.500000 
143 1 0.432147 0.047626 0.500000 
144 1 0.441779 0.064954 0.500000 
145 1 0.452087 0.048297 0.500000 
146 1 0.461712 0.065631 0.500000 
147 1 0.472018 0.048954 0.500000 
148 1 0.481639 0.066288 0.500000 
149 1 0.491940 0.049595 0.500000 
150 1 0.501557 0.066931 0.500000 
151 1 0.511855 0.050220 0.500000 
152 1 0.521469 0.067553 0.500000 
153 1 0.531762 0.050823 0.500000 
154 1 0.541375 0.068153 0.500000 
155 1 0.551663 0.051406 0.500000 
156 1 0.561274 0.068729 0.500000 
157 1 0.571560 0.051966 0.500000 
158 1 0.581172 0.069284 0.500000 
159 1 0.591452 0.052503 0.500000 
160 1 0.601069 0.069809 0.500000 
161 1 0.611341 0.053013 0.500000 
162 1 0.620964 0.070309 0.500000 
163 1 0.631230 0.053499 0.500000 
164 1 0.640859 0.070781 0.500000 
165 1 0.651117 0.053960 0.500000 
166 1 0.660753 0.071230 0.500000 
167 1 0.671006 0.054396 0.500000 
168 1 0.680650 0.071653 0.500000 
169 1 0.690897 0.054806 0.500000 
170 1 0.700550 0.072049 0.500000 
171 1 0.710789 0.055192 0.500000 
172 1 0.720453 0.072420 0.500000 
173 1 0.730685 0.055554 0.500000 
174 1 0.740359 0.072768 0.500000 
175 1 0.750586 0.055894 0.500000 
176 1 0.760269 0.073094 0.500000 
177 1 0.770490 0.056213 0.500000 
178 1 0.780183 0.073399 0.500000 
179 1 0.790400 0.056511 0.500000 
180 1 0.800104 0.073682 0.500000 
181 1 0.810316 0.056789 0.500000 
182 1 0.820029 0.073948 0.500000 
183 1 0.830238 0.057049 0.500000 
184 1 0.839958 0.074199 0.500000 
185 1 0.850164 0.057294 0.500000 
186 1 0.859892 0.074431 0.500000 
187 1 0.870095 0.057522 0.500000 
188 1 0.879831 0.074649 0.500000 
189 1 0.890032 0.057734 0.500000 
190 1 0.899774 0.074852 0.500000 
191 1 0.909975 0.057934 0.500000 
192 1 0.919719 0.075042 0.500000 
193 1 0.929922 0.058120 0.500000 
194 1 0.939669 0.075222 0.500000 
195 1 0.949875 0.058294 0.500000 
196 1 0.959621 0.075390 0.500000 
197 1 0.969833 0.058458 0.500000 
198 1 0.979588 0.075542 0.500000 
199 1 0.989796 0.058613 0.500000 
200 1 0.999557 0.075685 0.500000 
201 1 0.011275 0.067077 0.500000 
202 1 0.020924 0.084144 0.500000 
203 1 0.031308 0.067688 0.500000 
204 1 0.040959 0.084763 0.500000 
205 1 0.051342 0.068307 0.500000 
206 1 0.060994 0.085390 0.500000 
207 1 0.071376 0.068936 0.500000 
208 1 0.081042 0.086039 0.500000 
209 1 0.091425 0.069590 0.500000 
210 1 0.101089 0.086708 0.500000 
211 1 0.111466 0.070250 0.500000 
212 1 0.121132 0.087381 0.500000 
213 1 0.131503 0.070917 0.500000 
214 1 0.141174 0.088062 0.500000 
215 1 0.151540 0.071592 0.500000 
216 1 0.161212 0.088754 0.500000 
217 1 0.171573 0.072278 0.500000 
218 1 0.181246 0.089456 0.500000 
219 1 0.191601 0.072970 0.500000 
220 1 0.201276 0.090161 0.500000 
221 1 0.211625 0.073670 0.500000 
222 1 0.221301 0.090875 0.500000 
223 1 0.231647 0.074379 0.500000 
224 1 0.241323 0.091598 0.500000 
225 1 0.251663 0.075090 0.500000 
226 1 0.261338 0.092327 0.500000 
227 1 0.271674 0.075811 0.500000 
228 1 0.281347 0.093064 0.500000 
229 1 0.291681 0.076539 0.500000 
230 1 0.301350 0.093806 0.500000 
231 1 0.311678 0.077265 0.500000 
232 1 0.321341 0.094550 0.500000 
233 1 0.331665 0.077999 0.500000 
234 1 0.341325 0.095299 0.500000 
235 1 0.351645 0.078730 0.500000 
236 1 0.361300 0.096039 0.500000 
237 1 0.371616 0.079453 0.500000 
238 1 0.381262 0.096779 0.500000 
239 1 0.391577 0.080179 0.500000 
240 1 0.401219 0.097515 0.500000 
241 1 0.411529 0.080897 0.500000 
242 1 0.421167 0.098241 0.500000 
243 1 0.431472 0.081602 0.500000 
244 1 0.441105 0.098954 0.500000 
245 1 0.451409 0.082297 0.500000 
246 1 0.461035 0.099651 0.500000 
247 1 0.471336 0.082974 0.500000 
248 1 0.480958 0.100330 0.500000 
249 1 0.491257 0.083634 0.500000 
250 1 0.500875 0.100991 0.500000 
251 1 0.511173 0.084276 0.500000 
252 1 0.520789 0.101629 0.500000 
253 1 0.531084 0.084893 0.500000 
254 1 0.540699 0.102240 0.500000 
255 1 0.550989 0.085488 0.500000 
256 1 0.560605 0.102827 0.500000 
257 1 0.570890 0.086057 0.500000 
258 1 0.580511 0.103386 0.500000 
259 1 0.590793 0.086601 0.500000 
260 1 0.600416 0.103919 0.500000 
261 1 0.610694 0.087115 0.500000 
262 1 0.620321 0.104419 0.500000 
263 1 0.630594 0.087600 0.500000 
264 1 0.640227 0.104893 0.500000 
265 1 0.650494 0.088062 0.500000 
266 1 0.660133 0.105339 0.500000 
267 1 0.670395 0.088497 0.500000 
268 1 0.680042 0.105754 0.500000 
269 1 0.690300 0.088902 0.500000 
270 1 0.699954 0.106147 0.500000 
271 1 0.710207 0.089284 0.500000 
272 1 0.719871 0.106513 0.500000 
273 1 0.730119 0.089641 0.500000 
274 1 0.739792 0.106857 0.500000 
275 1 0.750035 0.089974 0.500000 
276 1 0.759716 0.107175 0.500000 
277 1 0.769954 0.090287 0.500000 
278 1 0.779645 0.107470 0.500000 
279 1 0.789877 0.090576 0.500000 
280 1 0.799576 0.107748 0.500000 
281 1 0.809806 0.090848 0.500000 
282 1 0.819511 0.108007 0.500000 
283 1 0.829738 0.091103 0.500000 
284 1 0.839451 0.108251 0.500000 
285 1 0.849674 0.091341 0.500000 
286 1 0.859394 0.108479 0.500000 
287 1 0.869614 0.091564 0.500000 
288 1 0.879341 0.108692 0.500000 
289 1 0.889559 0.091772 0.500000 
290 1 0.899291 0.108888 0.500000 
291 1 0.909507 0.091965 0.500000 
292 1 0.919246 0.109072 0.500000 
293 1 0.929456 0.092147 0.500000 
294 1 0.939201 0.109249 0.500000 
295 1 0.949407 0.092323 0.500000 
296 1 0.959160 0.109410 0.500000 
297 1 0.969375 0.092475 0.500000 
298 1 0.979136 0.109550 0.500000 
299 1 0.989349 0.092617 0.500000 
300 1 0.999117 0.109681 0.500000 
301 1 0.010532 0.100598 0.500000 
302 1 0.020165 0.117663 0.500000 
303 1 0.030566 0.101214 0.500000 
304 1 0.040201 0.118287 0.500000 
305 1 0.050602 0.101839 0.500000 
306 1 0.060239 0.118920 0.500000 
307 1 0.070640 0.102476 0.500000 
308 1 0.080292 0.119585 0.500000 
309 1 0.090694 0.103152 0.500000 
310 1 0.100345 0.120273 0.500000 
311 1 0.110743 0.103833 0.500000 
312 1 0.120395 0.120965 0.500000 
313 1 0.130790 0.104519 0.500000 
314 1 0.140443 0.121666 0.500000 
315 1 0.150832 0.105216 0.500000 
316 1 0.160487 0.122380 0.500000 
317 1 0.170870 0.105925 0.500000 
318 1 0.180528 0.123100 0.500000 
319 1 0.190909 0.106639 0.500000 
320 1 0.200567 0.123832 0.500000 
321 1 0.210940 0.107360 0.500000 
322 1 0.220599 0.124569 0.500000 
323 1 0.230966 0.108090 0.500000 
324 1 0.240626 0.125316 0.500000 
325 1 0.250987 0.108829 0.500000 
326 1 0.260646 0.126074 0.500000 
327 1 0.271001 0.109575 0.500000 
328 1 0.280657 0.126840 0.500000 
329 1 0.291007 0.110330 0.500000 
330 1 0.300661 0.127612 0.500000 
331 1 0.311005 0.111089 0.500000 
332 1 0.320659 0.128387 0.500000 
333 1 0.330994 0.111850 0.500000 
334 1 0.340645 0.129164 0.500000 
335 1 0.350976 0.112609 0.500000 
336 1 0.360621 0.129942 0.500000 
337 1 0.370945 0.113368 0.500000 
338 1 0.380588 0.130711 0.500000 
339 1 0.390905 0.114119 0.500000 
340 1 0.400543 0.131476 0.500000 
341 1 0.410855 0.114865 0.500000 
342 1 0.420488 0.132232 0.500000 
343 1 0.430798 0.115599 0.500000 
344 1 0.440425 0.132973 0.500000 
345 1 0.450732 0.116319 0.500000 
346 1 0.460354 0.133698 0.500000 
347 1 0.470657 0.117018 0.500000 
348 1 0.480278 0.134397 0.500000 
349 1 0.490578 0.117698 0.500000 
350 1 0.500196 0.135077 0.500000 
351 1 0.510493 0.118357 0.500000 
352 1 0.520111 0.135729 0.500000 
353 1 0.530406 0.118988 0.500000 
354 1 0.540024 0.136352 0.500000 
355 1 0.550316 0.119592 0.500000 
356 1 0.559936 0.136948 0.500000 
357 1 0.570224 0.120170 0.500000 
358 1 0.579849 0.137511 0.500000 
359 1 0.590133 0.120717 0.500000 
360 1 0.599762 0.138044 0.500000 
361 1 0.610043 0.121234 0.500000 
362 1 0.619674 0.138548 0.500000 
363 1 0.629952 0.121722 0.500000 
364 1 0.639589 0.139019 0.500000 
365 1 0.649863 0.122179 0.500000 
366 1 0.659506 0.139459 0.500000 
367 1 0.669778 0.122607 0.500000 
368 1 0.679426 0.139873 0.500000 
369 1 0.689693 0.123009 0.500000 
370 1 0.699349 0.140256 0.500000 
371 1 0.709614 0.123384 0.500000 
372 1 0.719276 0.140616 0.500000 
373 1 0.729537 0.123737 0.500000 
374 1 0.739209 0.140950 0.500000 
375 1 0.749467 0.124064 0.500000 
376 1 0.759146 0.141263 0.500000 
377 1 0.769401 0.124366 0.500000 
378 1 0.779087 0.141552 0.500000 
379 1 0.789336 0.124649 0.500000 
380 1 0.799031 0.141822 0.500000 
381 1 0.809276 0.124915 0.500000 
382 1 0.818979 0.142074 0.500000 
383 1 0.829218 0.125161 0.500000 
384 1 0.838928 0.142308 0.500000 
385 1 0.849165 0.125392 0.500000 
386 1 0.858883 0.142528 0.500000 
387 1 0.869115 0.125610 0.500000 
388 1 0.878842 0.142733 0.500000 
389 1 0.889070 0.125812 0.500000 
390 1 0.898802 0.142925 0.500000 
391 1 0.909027 0.125998 0.500000 
392 1 0.918765 0.143106 0.500000 
393 1 0.928983 0.126178 0.500000 
394 1 0.938731 0.143277 0.500000 
395 1 0.948940 0.126349 0.500000 
396 1 0.958701 0.143428 0.500000 
397 1 0.968919 0.126487 0.500000 
398 1 0.978689 0.143555 0.500000 
399 1 0.988905 0.126616 0.500000 
400 1 0.998682 0.143674 0.500000 
401 1 0.009754 0.134110 0.500000 
402 1 0.019367 0.151171 0.500000 
403 1 0.029790 0.134729 0.500000 
404 1 0.039403 0.151799 0.500000 
405 1 0.049825 0.135360 0.500000 
406 1 0.059442 0.152437 0.500000 
407 1 0.069865 0.136003 0.500000 
408 1 0.079499 0.153110 0.500000 
409 1 0.089928 0.136698 0.500000 
410 1 0.099558 0.153820 0.500000 
411 1 0.109985 0.137399 0.500000 
412 1 0.119615 0.154533 0.500000 
413 1 0.130036 0.138105 0.500000 
414 1 0.139669 0.155254 0.500000 
415 1 0.150086 0.138822 0.500000 
416 1 0.159721 0.155987 0.500000 
417 1 0.170133 0.139550 0.500000 
418 1 0.179769 0.156730 0.500000 
419 1 0.190175 0.140287 0.500000 
420 1 0.199813 0.157484 0.500000 
421 1 0.210215 0.141035 0.500000 
422 1 0.219855 0.158248 0.500000 
423 1 0.230248 0.141790 0.500000 
424 1 0.239889 0.159026 0.500000 
425 1 0.250274 0.142556 0.500000 
426 1 0.259918 0.159809 0.500000 
427 1 0.270294 0.143333 0.500000 
428 1 0.279938 0.160607 0.500000 
429 1 0.290305 0.144119 0.500000 
430 1 0.299949 0.161411 0.500000 
431 1 0.310308 0.144906 0.500000 
432 1 0.319949 0.162220 0.500000 
433 1 0.330303 0.145702 0.500000 
434 1 0.339940 0.163035 0.500000 
435 1 0.350285 0.146497 0.500000 
436 1 0.359922 0.163843 0.500000 
437 1 0.370260 0.147286 0.500000 
438 1 0.379890 0.164651 0.500000 
439 1 0.390222 0.148073 0.500000 
440 1 0.399847 0.165454 0.500000 
441 1 0.410171 0.148851 0.500000 
442 1 0.419793 0.166241 0.500000 
443 1 0.430112 0.149614 0.500000 
444 1 0.439732 0.167016 0.500000 
445 1 0.450046 0.150364 0.500000 
446 1 0.459665 0.167765 0.500000 
447 1 0.469974 0.151086 0.500000 
448 1 0.479589 0.168489 0.500000 
449 1 0.489895 0.151787 0.500000 
450 1 0.499507 0.169190 0.500000 
451 1 0.509810 0.152463 0.500000 
452 1 0.519421 0.169857 0.500000 
453 1 0.529724 0.153108 0.500000 
454 1 0.539336 0.170490 0.500000 
455 1 0.549638 0.153720 0.500000 
456 1 0.559253 0.171090 0.500000 
457 1 0.569554 0.154303 0.500000 
458 1 0.579170 0.171656 0.500000 
459 1 0.589470 0.154851 0.500000 
460 1 0.599090 0.172191 0.500000 
461 1 0.609386 0.155371 0.500000 
462 1 0.619013 0.172694 0.500000 
463 1 0.629305 0.155857 0.500000 
464 1 0.638940 0.173163 0.500000 
465 1 0.649227 0.156312 0.500000 
466 1 0.658870 0.173600 0.500000 
467 1 0.669151 0.156737 0.500000 
468 1 0.678803 0.174004 0.500000 
469 1 0.689080 0.157131 0.500000 
470 1 0.698739 0.174381 0.500000 
471 1 0.709012 0.157499 0.500000 
472 1 0.718679 0.174733 0.500000 
473 1 0.728947 0.157839 0.500000 
474 1 0.738625 0.175056 0.500000 
475 1 0.748888 0.158158 0.500000 
476 1 0.758573 0.175360 0.500000 
477 1 0.768833 0.158456 0.500000 
478 1 0.778525 0.175641 0.500000 
479 1 0.788782 0.158730 0.500000 
480 1 0.798480 0.175900 0.500000 
481 1 0.808734 0.158985 0.500000 
482 1 0.818438 0.176144 0.500000 
483 1 0.828690 0.159226 0.500000 
484 1 0.838402 0.176370 0.500000 
485 1 0.848648 0.159449 0.500000 
486 1 0.858372 0.176582 0.500000 
487 1 0.868610 0.159656 0.500000 
488 1 0.878341 0.176778 0.500000 
489 1 0.888573 0.159851 0.500000 
490 1 0.898311 0.176960 0.500000 
491 1 0.908538 0.160032 0.500000 
492 1 0.918285 0.177132 0.500000 
493 1 0.928506 0.160205 0.500000 
494 1 0.938264 0.177298 0.500000 
495 1 0.948477 0.160370 0.500000 
496 1 0.958249 0.177440 0.500000 
497 1 0.968470 0.160496 0.500000 
498 1 0.978251 0.177553 0.500000 
499 1 0.988467 0.160611 0.500000 
500 1 0.998258 0.177659 0.500000 
501 1 0.008938 0.167610 0.500000 
502 1 0.018532 0.184668 0.500000 
503 1 0.028972 0.168234 0.500000 
504 1 0.038566 0.185299 0.500000 
505 1 0.049008 0.168868 0.500000 
506 1 0.058602 0.185942 0.500000 
507 1 0.069047 0.169517 0.500000 
508 1 0.078662 0.186626 0.500000 
509 1 0.089113 0.170226 0.500000 
510 1 0.098723 0.187349 0.500000 
511 1 0.109176 0.170947 0.500000 
512 1 0.118785 0.188081 0.500000 
513 1 0.129236 0.171675 0.500000 
514 1 0.138848 0.188823 0.500000 
515 1 0.149292 0.172411 0.500000 
516 1 0.158905 0.189577 0.500000 
517 1 0.169347 0.173161 0.500000 
518 1 0.178963 0.190339 0.500000 
519 1 0.189398 0.173920 0.500000 
520 1 0.199017 0.191117 0.500000 
521 1 0.209445 0.174691 0.500000 
522 1 0.219067 0.191909 0.500000 
523 1 0.229487 0.175477 0.500000 
524 1 0.239113 0.192715 0.500000 
525 1 0.249525 0.176271 0.500000 
526 1 0.259150 0.193530 0.500000 
527 1 0.269553 0.177077 0.500000 
528 1 0.279177 0.194360 0.500000 
529 1 0.289571 0.177896 0.500000 
530 1 0.299196 0.195202 0.500000 
531 1 0.309581 0.178722 0.500000 
532 1 0.319205 0.196051 0.500000 
533 1 0.329579 0.179553 0.500000 
534 1 0.339205 0.196899 0.500000 
535 1 0.349570 0.180382 0.500000 
536 1 0.359191 0.197753 0.500000 
537 1 0.369548 0.181213 0.500000 
538 1 0.379167 0.198603 0.500000 
539 1 0.389513 0.182038 0.500000 
540 1 0.399127 0.199446 0.500000 
541 1 0.409466 0.182855 0.500000 
542 1 0.419077 0.200273 0.500000 
543 1 0.429409 0.183652 0.500000 
544 1 0.439018 0.201077 0.500000 
545 1 0.449346 0.184429 0.500000 
546 1 0.458950 0.201859 0.500000 
547 1 0.469273 0.185181 0.500000 
548 1 0.478875 0.202610 0.500000 
549 1 0.489194 0.185905 0.500000 
550 1 0.498796 0.203331 0.500000 
551 1 0.509112 0.186598 0.500000 
552 1 0.518715 0.204013 0.500000 
553 1 0.529028 0.187254 0.500000 
554 1 0.538635 0.204657 0.500000 
555 1 0.548946 0.187875 0.500000 
556 1 0.558556 0.205264 0.500000 
557 1 0.568867 0.188461 0.500000 
558 1 0.578480 0.205830 0.500000 
559 1 0.588789 0.189010 0.500000 
560 1 0.598406 0.206361 0.500000 
561 1 0.608714 0.189528 0.500000 
562 1 0.618339 0.206858 0.500000 
563 1 0.628645 0.190011 0.500000 
564 1 0.638277 0.207320 0.500000 
565 1 0.648580 0.190460 0.500000 
566 1 0.658219 0.207749 0.500000 
567 1 0.668517 0.190878 0.500000 
568 1 0.678166 0.208148 0.500000 
569 1 0.688458 0.191263 0.500000 
570 1 0.698117 0.208517 0.500000 
571 1 0.708403 0.191626 0.500000 
572 1 0.718073 0.208856 0.500000 
573 1 0.728353 0.191956 0.500000 
574 1 0.738031 0.209172 0.500000 
575 1 0.748305 0.192266 0.500000 
576 1 0.757992 0.209467 0.500000 
577 1 0.768261 0.192553 0.500000 
578 1 0.777958 0.209735 0.500000 
579 1 0.788222 0.192819 0.500000 
580 1 0.797928 0.209987 0.500000 
581 1 0.808185 0.193065 0.500000 
582 1 0.817902 0.210217 0.500000 
583 1 0.828155 0.193293 0.500000 
584 1 0.837881 0.210432 0.500000 
585 1 0.848129 0.193505 0.500000 
586 1 0.857861 0.210634 0.500000 
587 1 0.868105 0.193706 0.500000 
588 1 0.877844 0.210822 0.500000 
589 1 0.888082 0.193891 0.500000 
590 1 0.897832 0.210993 0.500000 
591 1 0.908061 0.194061 0.500000 
592 1 0.917820 0.211156 0.500000 
593 1 0.928041 0.194227 0.500000 
594 1 0.937810 0.211313 0.500000 
595 1 0.948021 0.194385 0.500000 
596 1 0.957807 0.211443 0.500000 
597 1 0.968031 0.194496 0.500000 
598 1 0.977825 0.211543 0.500000 
599 1 0.988043 0.194599 0.500000 
600 1 0.997847 0.211634 0.500000 
601 1 0.008083 0.201103 0.500000 
602 1 0.017654 0.218157 0.500000 
603 1 0.028113 0.201727 0.500000 
604 1 0.037684 0.218790 0.500000 
605 1 0.048147 0.202367 0.500000 
606 1 0.057718 0.219436 0.500000 
607 1 0.068185 0.203017 0.500000 
608 1 0.077776 0.220129 0.500000 
609 1 0.088253 0.203743 0.500000 
610 1 0.097840 0.220865 0.500000 
611 1 0.108320 0.204478 0.500000 
612 1 0.117907 0.221610 0.500000 
613 1 0.128385 0.205221 0.500000 
614 1 0.137972 0.222368 0.500000 
615 1 0.148447 0.205980 0.500000 
616 1 0.158040 0.223137 0.500000 
617 1 0.168510 0.206745 0.500000 
618 1 0.178106 0.223922 0.500000 
619 1 0.188571 0.207527 0.500000 
620 1 0.198170 0.224725 0.500000 
621 1 0.208629 0.208325 0.500000 
622 1 0.218231 0.225544 0.500000 
623 1 0.228681 0.209137 0.500000 
624 1 0.238286 0.226379 0.500000 
625 1 0.248730 0.209966 0.500000 
626 1 0.258335 0.227232 0.500000 
627 1 0.268767 0.210807 0.500000 
628 1 0.278376 0.228098 0.500000 
629 1 0.288795 0.211660 0.500000 
630 1 0.298405 0.228979 0.500000 
631 1 0.308814 0.212526 0.500000 
632 1 0.318425 0.229868 0.500000 
633 1 0.328824 0.213395 0.500000 
634 1 0.338433 0.230764 0.500000 
635 1 0.348820 0.214270 0.500000 
636 1 0.358426 0.231663 0.500000 
637 1 0.368804 0.215144 0.500000 
638 1 0.378406 0.232559 0.500000 
639 1 0.388775 0.216016 0.500000 
640 1 0.398373 0.233452 0.500000 
641 1 0.408732 0.216873 0.500000 
642 1 0.418328 0.234320 0.500000 
643 1 0.428679 0.217707 0.500000 
644 1 0.438269 0.235167 0.500000 
645 1 0.448616 0.218522 0.500000 
646 1 0.458204 0.235983 0.500000 
647 1 0.468546 0.219304 0.500000 
648 1 0.478133 0.236768 0.500000 
649 1 0.488470 0.220054 0.500000 
650 1 0.498056 0.237509 0.500000 
651 1 0.508391 0.220764 0.500000 
652 1 0.517977 0.238207 0.500000 
653 1 0.528311 0.221434 0.500000 
654 1 0.537901 0.238858 0.500000 
655 1 0.548234 0.222064 0.500000 
656 1 0.557831 0.239466 0.500000 
657 1 0.568161 0.222649 0.500000 
658 1 0.577764 0.240033 0.500000 
659 1 0.588092 0.223198 0.500000 
660 1 0.597703 0.240557 0.500000 
661 1 0.608026 0.223705 0.500000 
662 1 0.617645 0.241043 0.500000 
663 1 0.627965 0.224180 0.500000 
664 1 0.637596 0.241496 0.500000 
665 1 0.647911 0.224622 0.500000 
666 1 0.657554 0.241917 0.500000 
667 1 0.667863 0.225031 0.500000 
668 1 0.677515 0.242302 0.500000 
669 1 0.687820 0.225409 0.500000 
670 1 0.697481 0.242660 0.500000 
671 1 0.707782 0.225757 0.500000 
672 1 0.717451 0.242993 0.500000 
673 1 0.727746 0.226082 0.500000 
674 1 0.737426 0.243296 0.500000 
675 1 0.747715 0.226381 0.500000 
676 1 0.757410 0.243575 0.500000 
677 1 0.767688 0.226654 0.500000 
678 1 0.777395 0.243833 0.500000 
679 1 0.787664 0.226909 0.500000 
680 1 0.797382 0.244070 0.500000 
681 1 0.807645 0.227143 0.500000 
682 1 0.817371 0.244289 0.500000 
683 1 0.827627 0.227359 0.500000 
684 1 0.837363 0.244494 0.500000 
685 1 0.847613 0.227564 0.500000 
686 1 0.857359 0.244684 0.500000 
687 1 0.867602 0.227753 0.500000 
688 1 0.877359 0.244856 0.500000 
689 1 0.887597 0.227924 0.500000 
690 1 0.897360 0.245018 0.500000 
691 1 0.907591 0.228088 0.500000 
692 1 0.917364 0.245174 0.500000 
693 1 0.927585 0.228242 0.500000 
694 1 0.937372 0.245319 0.500000 
695 1 0.947580 0.228392 0.500000 
696 1 0.957383 0.245436 0.500000 
697 1 0.967605 0.228489 0.500000 
698 1 0.977417 0.245522 0.500000 
699 1 0.987634 0.228577 0.500000 
700 1 0.997455 0.245600 0.500000 
701 1 0.007189 0.234587 0.500000 
702 1 0.016737 0.251640 0.500000 
703 1 0.027214 0.235215 0.500000 
704 1 0.036760 0.252274 0.500000 
705 1 0.047243 0.235854 0.500000 
706 1 0.056787 0.252921 0.500000 
707 1 0.067275 0.236508 0.500000 
708 1 0.076841 0.253618 0.500000 
709 1 0.087345 0.237244 0.500000 
710 1 0.096905 0.254361 0.500000 
711 1 0.107413 0.237989 0.500000 
712 1 0.116973 0.255118 0.500000 
713 1 0.127481 0.238747 0.500000 
714 1 0.137045 0.255888 0.500000 
715 1 0.147551 0.239517 0.500000 
716 1 0.157118 0.256672 0.500000 
717 1 0.167622 0.240303 0.500000 
718 1 0.177191 0.257478 0.500000 
719 1 0.187692 0.241109 0.500000 
720 1 0.197266 0.258303 0.500000 
721 1 0.207759 0.241931 0.500000 
722 1 0.217336 0.259150 0.500000 
723 1 0.227822 0.242775 0.500000 
724 1 0.237402 0.260018 0.500000 
725 1 0.247880 0.243635 0.500000 
726 1 0.257466 0.260903 0.500000 
727 1 0.267934 0.244513 0.500000 
728 1 0.277520 0.261812 0.500000 
729 1 0.287977 0.245408 0.500000 
730 1 0.297564 0.262736 0.500000 
731 1 0.308009 0.246316 0.500000 
732 1 0.317597 0.263673 0.500000 
733 1 0.328028 0.247233 0.500000 
734 1 0.337616 0.264620 0.500000 
735 1 0.348032 0.248156 0.500000 
736 1 0.357621 0.265572 0.500000 
737 1 0.368024 0.249080 0.500000 
738 1 0.377609 0.266527 0.500000 
739 1 0.388000 0.250003 0.500000 
740 1 0.397582 0.267467 0.500000 
741 1 0.407965 0.250908 0.500000 
742 1 0.417538 0.268397 0.500000 
743 1 0.427913 0.251796 0.500000 
744 1 0.437484 0.269292 0.500000 
745 1 0.447852 0.252648 0.500000 
746 1 0.457418 0.270154 0.500000 
747 1 0.467783 0.253468 0.500000 
748 1 0.477346 0.270968 0.500000 
749 1 0.487708 0.254243 0.500000 
750 1 0.497272 0.271728 0.500000 
751 1 0.507632 0.254971 0.500000 
752 1 0.517200 0.272436 0.500000 
753 1 0.527559 0.255650 0.500000 
754 1 0.537132 0.273095 0.500000 
755 1 0.547488 0.256280 0.500000 
756 1 0.557068 0.273701 0.500000 
757 1 0.567422 0.256867 0.500000 
758 1 0.577015 0.274258 0.500000 
759 1 0.587366 0.257408 0.500000 
760 1 0.596972 0.274772 0.500000 
761 1 0.607316 0.257908 0.500000 
762 1 0.616933 0.275248 0.500000 
763 1 0.627271 0.258372 0.500000 
764 1 0.636901 0.275689 0.500000 
765 1 0.647233 0.258802 0.500000 
766 1 0.656876 0.276094 0.500000 
767 1 0.667201 0.259199 0.500000 
768 1 0.676857 0.276470 0.500000 
769 1 0.687173 0.259564 0.500000 
770 1 0.696842 0.276814 0.500000 
771 1 0.707151 0.259903 0.500000 
772 1 0.716835 0.277128 0.500000 
773 1 0.727135 0.260213 0.500000 
774 1 0.736832 0.277421 0.500000 
775 1 0.747122 0.260496 0.500000 
776 1 0.756832 0.277685 0.500000 
777 1 0.767115 0.260758 0.500000 
778 1 0.776836 0.277930 0.500000 
779 1 0.787111 0.261000 0.500000 
780 1 0.796845 0.278154 0.500000 
781 1 0.807110 0.261220 0.500000 
782 1 0.816853 0.278361 0.500000 
783 1 0.827110 0.261427 0.500000 
784 1 0.836861 0.278554 0.500000 
785 1 0.847112 0.261619 0.500000 
786 1 0.856873 0.278729 0.500000 
787 1 0.867118 0.261790 0.500000 
788 1 0.876889 0.278887 0.500000 
789 1 0.887128 0.261952 0.500000 
790 1 0.896909 0.279038 0.500000 
791 1 0.907138 0.262104 0.500000 
792 1 0.916932 0.279179 0.500000 
793 1 0.927151 0.262247 0.500000 
794 1 0.936954 0.279315 0.500000 
795 1 0.947159 0.262387 0.500000 
796 1 0.956982 0.279417 0.500000 
797 1 0.967200 0.262468 0.500000 
798 1 0.977036 0.279488 0.500000 
799 1 0.987245 0.262544 0.500000 
800 1 0.997089 0.279555 0.500000 
801 1 0.006256 0.268068 0.500000 
802 1 0.015779 0.285121 0.500000 
803 1 0.026272 0.268696 0.500000 
804 1 0.035792 0.285753 0.500000 
805 1 0.046292 0.269335 0.500000 
806 1 0.055810 0.286400 0.500000 
807 1 0.066319 0.269991 0.500000 
808 1 0.075859 0.287097 0.500000 
809 1 0.086383 0.270729 0.500000 
810 1 0.095917 0.287844 0.500000 
811 1 0.106449 0.271482 0.500000 
812 1 0.115981 0.288606 0.500000 
813 1 0.126519 0.272249 0.500000 
814 1 0.136051 0.289382 0.500000 
815 1 0.146593 0.273031 0.500000 
816 1 0.156126 0.290182 0.500000 
817 1 0.166668 0.273835 0.500000 
818 1 0.176204 0.291001 0.500000 
819 1 0.186746 0.274659 0.500000 
820 1 0.196285 0.291846 0.500000 
821 1 0.206823 0.275507 0.500000 
822 1 0.216367 0.292718 0.500000 
823 1 0.226898 0.276379 0.500000 
824 1 0.236447 0.293614 0.500000 
825 1 0.246972 0.277270 0.500000 
826 1 0.256523 0.294539 0.500000 
827 1 0.267038 0.278190 0.500000 
828 1 0.276596 0.295488 0.500000 
829 1 0.287096 0.279126 0.500000 
830 1 0.296657 0.296459 0.500000 
831 1 0.307143 0.280081 0.500000 
832 1 0.316707 0.297449 0.500000 
833 1 0.327179 0.281053 0.500000 
834 1 0.336743 0.298458 0.500000 
835 1 0.347199 0.282033 0.500000 
836 1 0.356761 0.299478 0.500000 
837 1 0.367202 0.283021 0.500000 
838 1 0.376761 0.300498 0.500000 
839 1 0.387186 0.284001 0.500000 
840 1 0.396739 0.301509 0.500000 
841 1 0.407151 0.284969 0.500000 
842 1 0.416698 0.302501 0.500000 
843 1 0.427102 0.285913 0.500000 
844 1 0.436643 0.303462 0.500000 
845 1 0.447039 0.286819 0.500000 
846 1 0.456578 0.304367 0.500000 
847 1 0.466972 0.287677 0.500000 
848 1 0.476510 0.305215 0.500000 
849 1 0.486901 0.288477 0.500000 
850 1 0.496439 0.305996 0.500000 
851 1 0.506830 0.289220 0.500000 
852 1 0.516376 0.306712 0.500000 
853 1 0.526764 0.289905 0.500000 
854 1 0.536319 0.307369 0.500000 
855 1 0.546703 0.290536 0.500000 
856 1 0.556274 0.307963 0.500000 
857 1 0.566655 0.291111 0.500000 
858 1 0.576239 0.308510 0.500000 
859 1 0.586614 0.291639 0.500000 
860 1 0.596212 0.309008 0.500000 
861 1 0.606581 0.292126 0.500000 
862 1 0.616196 0.309467 0.500000 
863 1 0.626556 0.292576 0.500000 
864 1 0.636187 0.309892 0.500000 
865 1 0.646538 0.292991 0.500000 
866 1 0.656185 0.310280 0.500000 
867 1 0.666526 0.293373 0.500000 
868 1 0.676191 0.310639 0.500000 
869 1 0.686521 0.293728 0.500000 
870 1 0.696203 0.310968 0.500000 
871 1 0.706523 0.294046 0.500000 
872 1 0.716218 0.311268 0.500000 
873 1 0.726529 0.294343 0.500000 
874 1 0.736237 0.311544 0.500000 
875 1 0.746539 0.294614 0.500000 
876 1 0.756261 0.311795 0.500000 
877 1 0.766553 0.294862 0.500000 
878 1 0.776288 0.312027 0.500000 
879 1 0.786568 0.295089 0.500000 
880 1 0.796317 0.312238 0.500000 
881 1 0.806586 0.295299 0.500000 