ITEM: TIMESTEP
700
ITEM: NUMBER OF ATOMS
2850
ITEM: BOX BOUNDS ss ss pp
-28.0536 28.3253 
-28.9988 28.9984 
-0.5 0.5 
ITEM: ATOMS id type xs ys zs
1 1 0.012661 0.000000 0.500000 
2 1 0.022340 0.017073 0.500000 
3 1 0.032688 0.000597 0.500000 
4 1 0.042369 0.017677 0.500000 
5 1 0.052715 0.001202 0.500000 
6 1 0.062397 0.018289 0.500000 
7 1 0.072742 0.001814 0.500000 
8 1 0.082426 0.018911 0.500000 
9 1 0.092767 0.002433 0.500000 
10 1 0.102455 0.019539 0.500000 
11 1 0.112794 0.003060 0.500000 
12 1 0.122484 0.020177 0.500000 
13 1 0.132817 0.003697 0.500000 
14 1 0.142511 0.020822 0.500000 
15 1 0.152841 0.004338 0.500000 
16 1 0.162536 0.021475 0.500000 
17 1 0.172861 0.004988 0.500000 
18 1 0.182559 0.022136 0.500000 
19 1 0.192879 0.005643 0.500000 
20 1 0.202579 0.022803 0.500000 
21 1 0.212895 0.006305 0.500000 
22 1 0.222596 0.023475 0.500000 
23 1 0.232906 0.006973 0.500000 
24 1 0.242610 0.024155 0.500000 
25 1 0.252912 0.007645 0.500000 
26 1 0.262618 0.024839 0.500000 
27 1 0.272914 0.008319 0.500000 
28 1 0.282622 0.025527 0.500000 
29 1 0.292911 0.008997 0.500000 
30 1 0.302619 0.026217 0.500000 
31 1 0.312901 0.009676 0.500000 
32 1 0.322610 0.026908 0.500000 
33 1 0.332885 0.010356 0.500000 
34 1 0.342593 0.027600 0.500000 
35 1 0.352861 0.011033 0.500000 
36 1 0.362570 0.028289 0.500000 
37 1 0.372830 0.011707 0.500000 
38 1 0.382537 0.028974 0.500000 
39 1 0.392791 0.012376 0.500000 
40 1 0.402497 0.029655 0.500000 
41 1 0.412744 0.013039 0.500000 
42 1 0.422448 0.030326 0.500000 
43 1 0.432688 0.013694 0.500000 
44 1 0.442390 0.030989 0.500000 
45 1 0.452624 0.014337 0.500000 
46 1 0.462324 0.031639 0.500000 
47 1 0.472553 0.014968 0.500000 
48 1 0.482250 0.032276 0.500000 
49 1 0.492474 0.015584 0.500000 
50 1 0.502167 0.032896 0.500000 
51 1 0.512388 0.016184 0.500000 
52 1 0.522078 0.033498 0.500000 
53 1 0.532295 0.016766 0.500000 
54 1 0.541983 0.034081 0.500000 
55 1 0.552198 0.017330 0.500000 
56 1 0.561882 0.034643 0.500000 
57 1 0.572095 0.017873 0.500000 
58 1 0.581777 0.035184 0.500000 
59 1 0.591989 0.018396 0.500000 
60 1 0.601668 0.035702 0.500000 
61 1 0.611880 0.018896 0.500000 
62 1 0.621558 0.036195 0.500000 
63 1 0.631769 0.019373 0.500000 
64 1 0.641446 0.036666 0.500000 
65 1 0.651657 0.019829 0.500000 
66 1 0.661334 0.037110 0.500000 
67 1 0.671546 0.020261 0.500000 
68 1 0.681223 0.037533 0.500000 
69 1 0.691436 0.020670 0.500000 
70 1 0.701115 0.037931 0.500000 
71 1 0.711328 0.021058 0.500000 
72 1 0.721007 0.038307 0.500000 
73 1 0.731222 0.021423 0.500000 
74 1 0.740905 0.038660 0.500000 
75 1 0.751120 0.021768 0.500000 
76 1 0.760806 0.038993 0.500000 
77 1 0.771021 0.022094 0.500000 
78 1 0.780711 0.039305 0.500000 
79 1 0.790927 0.022399 0.500000 
80 1 0.800620 0.039597 0.500000 
81 1 0.810837 0.022687 0.500000 
82 1 0.820536 0.039873 0.500000 
83 1 0.830751 0.022958 0.500000 
84 1 0.840456 0.040130 0.500000 
85 1 0.850671 0.023211 0.500000 
86 1 0.860382 0.040369 0.500000 
87 1 0.870595 0.023449 0.500000 
88 1 0.880312 0.040595 0.500000 
89 1 0.890525 0.023674 0.500000 
90 1 0.900248 0.040807 0.500000 
91 1 0.910459 0.023884 0.500000 
92 1 0.920188 0.041005 0.500000 
93 1 0.930398 0.024080 0.500000 
94 1 0.940134 0.041192 0.500000 
95 1 0.950341 0.024267 0.500000 
96 1 0.960084 0.041368 0.500000 
97 1 0.970290 0.024443 0.500000 
98 1 0.980040 0.041531 0.500000 
99 1 0.990243 0.024606 0.500000 
100 1 1.000000 0.041686 0.500000 
101 1 0.011983 0.033545 0.500000 
102 1 0.021650 0.050615 0.500000 
103 1 0.032014 0.034148 0.500000 
104 1 0.041680 0.051227 0.500000 
105 1 0.052044 0.034760 0.500000 
106 1 0.061715 0.051847 0.500000 
107 1 0.072075 0.035381 0.500000 
108 1 0.081756 0.052462 0.500000 
109 1 0.092107 0.036012 0.500000 
110 1 0.101792 0.053112 0.500000 
111 1 0.112138 0.036650 0.500000 
112 1 0.121827 0.053787 0.500000 
113 1 0.132168 0.037297 0.500000 
114 1 0.141889 0.054453 0.500000 
115 1 0.152197 0.037952 0.500000 
116 1 0.161960 0.055135 0.500000 
117 1 0.172226 0.038617 0.500000 
118 1 0.181999 0.055837 0.500000 
119 1 0.192251 0.039288 0.500000 
120 1 0.202007 0.056550 0.500000 
121 1 0.212274 0.039967 0.500000 
122 1 0.222018 0.057238 0.500000 
123 1 0.232293 0.040654 0.500000 
124 1 0.242050 0.057908 0.500000 
125 1 0.252309 0.041345 0.500000 
126 1 0.262078 0.058618 0.500000 
127 1 0.272318 0.042042 0.500000 
128 1 0.282085 0.059371 0.500000 
129 1 0.292324 0.042743 0.500000 
130 1 0.302088 0.060092 0.500000 
131 1 0.312323 0.043447 0.500000 
132 1 0.322089 0.060760 0.500000 
133 1 0.332314 0.044150 0.500000 
134 1 0.342076 0.061455 0.500000 
135 1 0.352297 0.044856 0.500000 
136 1 0.362050 0.062194 0.500000 
137 1 0.372273 0.045557 0.500000 
138 1 0.382011 0.062919 0.500000 
139 1 0.392240 0.046254 0.500000 
140 1 0.401963 0.063625 0.500000 
141 1 0.412198 0.046944 0.500000 
142 1 0.421922 0.064357 0.500000 
143 1 0.432147 0.047626 0.500000 
144 1 0.441879 0.065086 0.500000 
145 1 0.452087 0.048297 0.500000 
146 1 0.461801 0.065754 0.500000 
147 1 0.472018 0.048954 0.500000 
148 1 0.481700 0.066397 0.500000 
149 1 0.491940 0.049595 0.500000 
150 1 0.501614 0.067041 0.500000 
151 1 0.511855 0.050220 0.500000 
152 1 0.521533 0.067646 0.500000 
153 1 0.531762 0.050823 0.500000 
154 1 0.541426 0.068227 0.500000 
155 1 0.551663 0.051406 0.500000 
156 1 0.561307 0.068819 0.500000 
157 1 0.571560 0.051966 0.500000 
158 1 0.581200 0.069381 0.500000 
159 1 0.591452 0.052503 0.500000 
160 1 0.601094 0.069913 0.500000 
161 1 0.611341 0.053013 0.500000 
162 1 0.620974 0.070434 0.500000 
163 1 0.631230 0.053499 0.500000 
164 1 0.640856 0.070915 0.500000 
165 1 0.651117 0.053960 0.500000 
166 1 0.660741 0.071364 0.500000 
167 1 0.671006 0.054396 0.500000 
168 1 0.680632 0.071771 0.500000 
169 1 0.690897 0.054806 0.500000 
170 1 0.700539 0.072111 0.500000 
171 1 0.710789 0.055192 0.500000 
172 1 0.720458 0.072460 0.500000 
173 1 0.730685 0.055554 0.500000 
174 1 0.740369 0.072838 0.500000 
175 1 0.750586 0.055894 0.500000 
176 1 0.760266 0.073190 0.500000 
177 1 0.770490 0.056213 0.500000 
178 1 0.780155 0.073491 0.500000 
179 1 0.790400 0.056511 0.500000 
180 1 0.800056 0.073741 0.500000 
181 1 0.810316 0.056789 0.500000 
182 1 0.819988 0.073979 0.500000 
183 1 0.830238 0.057049 0.500000 
184 1 0.839945 0.074242 0.500000 
185 1 0.850164 0.057294 0.500000 
186 1 0.859900 0.074519 0.500000 
187 1 0.870095 0.057522 0.500000 
188 1 0.879831 0.074767 0.500000 
189 1 0.890032 0.057734 0.500000 
190 1 0.899744 0.074932 0.500000 
191 1 0.909975 0.057934 0.500000 
192 1 0.919677 0.075073 0.500000 
193 1 0.929922 0.058120 0.500000 
194 1 0.939630 0.075226 0.500000 
195 1 0.949875 0.058294 0.500000 
196 1 0.959621 0.075390 0.500000 
197 1 0.969833 0.058458 0.500000 
198 1 0.979588 0.075542 0.500000 
199 1 0.989796 0.058613 0.500000 
200 1 0.999557 0.075685 0.500000 
201 1 0.011275 0.067077 0.500000 
202 1 0.020924 0.084144 0.500000 
203 1 0.031308 0.067688 0.500000 
204 1 0.040959 0.084763 0.500000 
205 1 0.051342 0.068307 0.500000 
206 1 0.060994 0.085390 0.500000 
207 1 0.071376 0.068936 0.500000 
208 1 0.081054 0.086061 0.500000 
209 1 0.091404 0.069580 0.500000 
210 1 0.101105 0.086708 0.500000 
211 1 0.111440 0.070240 0.500000 
212 1 0.121161 0.087358 0.500000 
213 1 0.131519 0.070903 0.500000 
214 1 0.141213 0.088064 0.500000 
215 1 0.151607 0.071604 0.500000 
216 1 0.161256 0.088830 0.500000 
217 1 0.171662 0.072355 0.500000 
218 1 0.181311 0.089601 0.500000 
219 1 0.191688 0.073100 0.500000 
220 1 0.201368 0.090328 0.500000 
221 1 0.211726 0.073806 0.500000 
222 1 0.221421 0.091017 0.500000 
223 1 0.231776 0.074478 0.500000 
224 1 0.241464 0.091716 0.500000 
225 1 0.251806 0.075173 0.500000 
226 1 0.261498 0.092452 0.500000 
227 1 0.271817 0.075925 0.500000 
228 1 0.281524 0.093226 0.500000 
229 1 0.291828 0.076680 0.500000 
230 1 0.301542 0.093983 0.500000 
231 1 0.311833 0.077393 0.500000 
232 1 0.321551 0.094720 0.500000 
233 1 0.331815 0.078094 0.500000 
234 1 0.341532 0.095475 0.500000 
235 1 0.351794 0.078835 0.500000 
236 1 0.361497 0.096243 0.500000 
237 1 0.371782 0.079600 0.500000 
238 1 0.381469 0.096994 0.500000 
239 1 0.391754 0.080333 0.500000 
240 1 0.401423 0.097731 0.500000 
241 1 0.411700 0.081044 0.500000 
242 1 0.421338 0.098471 0.500000 
243 1 0.431640 0.081773 0.500000 
244 1 0.441257 0.099188 0.500000 
245 1 0.451573 0.082492 0.500000 
246 1 0.461193 0.099875 0.500000 
247 1 0.471478 0.083159 0.500000 
248 1 0.481107 0.100557 0.500000 
249 1 0.491373 0.083801 0.500000 
250 1 0.500996 0.101226 0.500000 
251 1 0.511282 0.084440 0.500000 
252 1 0.520889 0.101870 0.500000 
253 1 0.531183 0.085067 0.500000 
254 1 0.540789 0.102495 0.500000 
255 1 0.551064 0.085675 0.500000 
256 1 0.560688 0.103097 0.500000 
257 1 0.570957 0.086257 0.500000 
258 1 0.580577 0.103670 0.500000 
259 1 0.590860 0.086818 0.500000 
260 1 0.600467 0.104209 0.500000 
261 1 0.610756 0.087349 0.500000 
262 1 0.620360 0.104713 0.500000 
263 1 0.630638 0.087826 0.500000 
264 1 0.640236 0.105193 0.500000 
265 1 0.650504 0.088282 0.500000 
266 1 0.660115 0.105629 0.500000 
267 1 0.670380 0.088712 0.500000 
268 1 0.680010 0.106031 0.500000 
269 1 0.690279 0.089081 0.500000 
270 1 0.699903 0.106421 0.500000 
271 1 0.710176 0.089427 0.500000 
272 1 0.719792 0.106780 0.500000 
273 1 0.730084 0.089787 0.500000 
274 1 0.739694 0.107099 0.500000 
275 1 0.750020 0.090139 0.500000 
276 1 0.759645 0.107374 0.500000 
277 1 0.769967 0.090450 0.500000 
278 1 0.779622 0.107638 0.500000 
279 1 0.789893 0.090706 0.500000 
280 1 0.799573 0.107899 0.500000 
281 1 0.809796 0.090934 0.500000 
282 1 0.819488 0.108157 0.500000 
283 1 0.829702 0.091186 0.500000 
284 1 0.839397 0.108448 0.500000 
285 1 0.849636 0.091485 0.500000 
286 1 0.859339 0.108753 0.500000 
287 1 0.869594 0.091776 0.500000 
288 1 0.879322 0.108988 0.500000 
289 1 0.889560 0.091974 0.500000 
290 1 0.899331 0.109097 0.500000 
291 1 0.909525 0.092065 0.500000 
292 1 0.919294 0.109180 0.500000 
293 1 0.929473 0.092193 0.500000 
294 1 0.939239 0.109292 0.500000 
295 1 0.949407 0.092323 0.500000 
296 1 0.959160 0.109410 0.500000 
297 1 0.969375 0.092475 0.500000 
298 1 0.979136 0.109550 0.500000 
299 1 0.989349 0.092617 0.500000 
300 1 0.999117 0.109681 0.500000 
301 1 0.010532 0.100598 0.500000 
302 1 0.020165 0.117663 0.500000 
303 1 0.030566 0.101214 0.500000 
304 1 0.040201 0.118287 0.500000 
305 1 0.050602 0.101839 0.500000 
306 1 0.060239 0.118920 0.500000 
307 1 0.070640 0.102476 0.500000 
308 1 0.080324 0.119587 0.500000 
309 1 0.090739 0.103166 0.500000 
310 1 0.100410 0.120310 0.500000 
311 1 0.110799 0.103843 0.500000 
312 1 0.120490 0.121012 0.500000 
313 1 0.130844 0.104543 0.500000 
314 1 0.140539 0.121767 0.500000 
315 1 0.150883 0.105300 0.500000 
316 1 0.160571 0.122539 0.500000 
317 1 0.170942 0.106067 0.500000 
318 1 0.180611 0.123310 0.500000 
319 1 0.191002 0.106821 0.500000 
320 1 0.200685 0.124026 0.500000 
321 1 0.211057 0.107528 0.500000 
322 1 0.220745 0.124738 0.500000 
323 1 0.231092 0.108233 0.500000 
324 1 0.240762 0.125502 0.500000 
325 1 0.251109 0.108980 0.500000 
326 1 0.260770 0.126284 0.500000 
327 1 0.271133 0.109759 0.500000 
328 1 0.280811 0.127055 0.500000 
329 1 0.291182 0.110533 0.500000 
330 1 0.300845 0.127825 0.500000 
331 1 0.311217 0.111286 0.500000 
332 1 0.320834 0.128603 0.500000 
333 1 0.331205 0.112056 0.500000 
334 1 0.340808 0.129374 0.500000 
335 1 0.351177 0.112834 0.500000 
336 1 0.360778 0.130162 0.500000 
337 1 0.371144 0.113591 0.500000 
338 1 0.380700 0.130997 0.500000 
339 1 0.391079 0.114374 0.500000 
340 1 0.400593 0.131823 0.500000 
341 1 0.410982 0.115173 0.500000 
342 1 0.420508 0.132587 0.500000 
343 1 0.430901 0.115913 0.500000 
344 1 0.440417 0.133328 0.500000 
345 1 0.450825 0.116605 0.500000 
346 1 0.460295 0.134057 0.500000 
347 1 0.470723 0.117307 0.500000 
348 1 0.480187 0.134736 0.500000 
349 1 0.490620 0.117988 0.500000 
350 1 0.500090 0.135399 0.500000 
351 1 0.510528 0.118635 0.500000 
352 1 0.519989 0.136061 0.500000 
353 1 0.530428 0.119269 0.500000 
354 1 0.539892 0.136692 0.500000 
355 1 0.550319 0.119877 0.500000 
356 1 0.559782 0.137301 0.500000 
357 1 0.570209 0.120474 0.500000 
358 1 0.579665 0.137894 0.500000 
359 1 0.590096 0.121046 0.500000 
360 1 0.599547 0.138462 0.500000 
361 1 0.609974 0.121579 0.500000 
362 1 0.619428 0.138985 0.500000 
363 1 0.629859 0.122094 0.500000 
364 1 0.639324 0.139468 0.500000 
365 1 0.649762 0.122562 0.500000 
366 1 0.659227 0.139915 0.500000 
367 1 0.669663 0.122980 0.500000 
368 1 0.679146 0.140294 0.500000 
369 1 0.689561 0.123366 0.500000 
370 1 0.699072 0.140661 0.500000 
371 1 0.709460 0.123742 0.500000 
372 1 0.718996 0.141023 0.500000 
373 1 0.729356 0.124078 0.500000 
374 1 0.738935 0.141289 0.500000 
375 1 0.749290 0.124326 0.500000 
376 1 0.758889 0.141508 0.500000 
377 1 0.769260 0.124564 0.500000 
378 1 0.778871 0.141759 0.500000 
379 1 0.789245 0.124837 0.500000 
380 1 0.798859 0.142081 0.500000 
381 1 0.809205 0.125131 0.500000 
382 1 0.818821 0.142409 0.500000 
383 1 0.829131 0.125419 0.500000 
384 1 0.838758 0.142675 0.500000 
385 1 0.849062 0.125702 0.500000 
386 1 0.858725 0.142905 0.500000 
387 1 0.869032 0.125967 0.500000 
388 1 0.878766 0.143073 0.500000 
389 1 0.889054 0.126116 0.500000 
390 1 0.898813 0.143211 0.500000 
391 1 0.909048 0.126221 0.500000 
392 1 0.918809 0.143307 0.500000 
393 1 0.928993 0.126274 0.500000 
394 1 0.938755 0.143330 0.500000 
395 1 0.948940 0.126349 0.500000 
396 1 0.958701 0.143428 0.500000 
397 1 0.968919 0.126487 0.500000 
398 1 0.978689 0.143555 0.500000 
399 1 0.988905 0.126616 0.500000 
400 1 0.998682 0.143674 0.500000 
401 1 0.009754 0.134110 0.500000 
402 1 0.019367 0.151171 0.500000 
403 1 0.029790 0.134729 0.500000 
404 1 0.039403 0.151799 0.500000 
405 1 0.049825 0.135360 0.500000 
406 1 0.059442 0.152437 0.500000 
407 1 0.069865 0.136003 0.500000 
408 1 0.079521 0.153133 0.500000 
409 1 0.089992 0.136737 0.500000 
410 1 0.099600 0.153878 0.500000 
411 1 0.110097 0.137455 0.500000 
412 1 0.119646 0.154657 0.500000 
413 1 0.130140 0.138216 0.500000 
414 1 0.139702 0.155445 0.500000 
415 1 0.150166 0.139003 0.500000 
416 1 0.159790 0.156213 0.500000 
417 1 0.170210 0.139781 0.500000 
418 1 0.179903 0.156946 0.500000 
419 1 0.190306 0.140507 0.500000 
420 1 0.199997 0.157699 0.500000 
421 1 0.210394 0.141237 0.500000 
422 1 0.220055 0.158487 0.500000 
423 1 0.230429 0.142002 0.500000 
424 1 0.240090 0.159270 0.500000 
425 1 0.250445 0.142790 0.500000 
426 1 0.260116 0.160064 0.500000 
427 1 0.270459 0.143560 0.500000 
428 1 0.280134 0.160858 0.500000 
429 1 0.290479 0.144349 0.500000 
430 1 0.300160 0.161661 0.500000 
431 1 0.310487 0.145141 0.500000 
432 1 0.320152 0.162468 0.500000 
433 1 0.330470 0.145919 0.500000 
434 1 0.340071 0.163320 0.500000 
435 1 0.350408 0.146734 0.500000 
436 1 0.359954 0.164211 0.500000 
437 1 0.370311 0.147607 0.500000 
438 1 0.379866 0.165068 0.500000 
439 1 0.390219 0.148451 0.500000 
440 1 0.399786 0.165888 0.500000 
441 1 0.410125 0.149229 0.500000 
442 1 0.419659 0.166723 0.500000 
443 1 0.430002 0.150013 0.500000 
444 1 0.439521 0.167530 0.500000 
445 1 0.449879 0.150790 0.500000 
446 1 0.459421 0.168275 0.500000 
447 1 0.469782 0.151502 0.500000 
448 1 0.479317 0.169013 0.500000 
449 1 0.489672 0.152203 0.500000 
450 1 0.499197 0.169733 0.500000 
451 1 0.509551 0.152900 0.500000 
452 1 0.519079 0.170411 0.500000 
453 1 0.529452 0.153553 0.500000 
454 1 0.538961 0.171061 0.500000 
455 1 0.549356 0.154192 0.500000 
456 1 0.558864 0.171669 0.500000 
457 1 0.569247 0.154787 0.500000 
458 1 0.578759 0.172247 0.500000 
459 1 0.589129 0.155347 0.500000 
460 1 0.598650 0.172783 0.500000 
461 1 0.609020 0.155882 0.500000 
462 1 0.618559 0.173280 0.500000 
463 1 0.628919 0.156368 0.500000 
464 1 0.638472 0.173741 0.500000 
465 1 0.648813 0.156821 0.500000 
466 1 0.658391 0.174138 0.500000 
467 1 0.668716 0.157209 0.500000 
468 1 0.678290 0.174513 0.500000 
469 1 0.688628 0.157569 0.500000 
470 1 0.698194 0.174846 0.500000 
471 1 0.708576 0.157931 0.500000 
472 1 0.718148 0.175165 0.500000 
473 1 0.728552 0.158251 0.500000 
474 1 0.738158 0.175458 0.500000 
475 1 0.748504 0.158492 0.500000 
476 1 0.758141 0.175696 0.500000 
477 1 0.768450 0.158693 0.500000 
478 1 0.778079 0.175905 0.500000 
479 1 0.788428 0.158972 0.500000 
480 1 0.798062 0.176154 0.500000 
481 1 0.808459 0.159321 0.500000 
482 1 0.818127 0.176485 0.500000 
483 1 0.828496 0.159649 0.500000 
484 1 0.838227 0.176796 0.500000 
485 1 0.848509 0.159876 0.500000 
486 1 0.858293 0.176992 0.500000 
487 1 0.868537 0.160012 0.500000 
488 1 0.878324 0.177097 0.500000 
489 1 0.888568 0.160141 0.500000 
490 1 0.898309 0.177231 0.500000 
491 1 0.908558 0.160284 0.500000 
492 1 0.918290 0.177331 0.500000 
493 1 0.928532 0.160356 0.500000 
494 1 0.938251 0.177397 0.500000 
495 1 0.948477 0.160370 0.500000 
496 1 0.958249 0.177440 0.500000 
497 1 0.968470 0.160496 0.500000 
498 1 0.978251 0.177553 0.500000 
499 1 0.988467 0.160611 0.500000 
500 1 0.998258 0.177659 0.500000 
501 1 0.008938 0.167610 0.500000 
502 1 0.018532 0.184668 0.500000 
503 1 0.028972 0.168234 0.500000 
504 1 0.038566 0.185299 0.500000 
505 1 0.049008 0.168868 0.500000 
506 1 0.058602 0.185942 0.500000 
507 1 0.069047 0.169517 0.500000 
508 1 0.078649 0.186647 0.500000 
509 1 0.089092 0.170273 0.500000 
510 1 0.098701 0.187456 0.500000 
511 1 0.109142 0.171076 0.500000 
512 1 0.118758 0.188268 0.500000 
513 1 0.129225 0.171871 0.500000 
514 1 0.138855 0.189026 0.500000 
515 1 0.149343 0.172624 0.500000 
516 1 0.158970 0.189760 0.500000 
517 1 0.169463 0.173359 0.500000 
518 1 0.179081 0.190526 0.500000 
519 1 0.189549 0.174118 0.500000 
520 1 0.199145 0.191346 0.500000 
521 1 0.209611 0.174930 0.500000 
522 1 0.219199 0.192187 0.500000 
523 1 0.229665 0.175738 0.500000 
524 1 0.239266 0.192976 0.500000 
525 1 0.249717 0.176531 0.500000 
526 1 0.259348 0.193764 0.500000 
527 1 0.269767 0.177332 0.500000 
528 1 0.279388 0.194598 0.500000 
529 1 0.289803 0.178148 0.500000 
530 1 0.299372 0.195506 0.500000 
531 1 0.309795 0.179004 0.500000 
532 1 0.319318 0.196453 0.500000 
533 1 0.329720 0.179902 0.500000 
534 1 0.339258 0.197385 0.500000 
535 1 0.349617 0.180808 0.500000 
536 1 0.359204 0.198287 0.500000 
537 1 0.369542 0.181685 0.500000 
538 1 0.379131 0.199202 0.500000 
539 1 0.389472 0.182554 0.500000 
540 1 0.399026 0.200124 0.500000 
541 1 0.409352 0.183438 0.500000 
542 1 0.418929 0.200974 0.500000 
543 1 0.429224 0.184272 0.500000 
544 1 0.438837 0.201760 0.500000 
545 1 0.449121 0.185032 0.500000 
546 1 0.458722 0.202564 0.500000 
547 1 0.469013 0.185794 0.500000 
548 1 0.478596 0.203335 0.500000 
549 1 0.488890 0.186536 0.500000 
550 1 0.498462 0.204062 0.500000 
551 1 0.508758 0.187233 0.500000 
552 1 0.518323 0.204757 0.500000 
553 1 0.528632 0.187909 0.500000 
554 1 0.538203 0.205405 0.500000 
555 1 0.548519 0.188527 0.500000 
556 1 0.558070 0.206024 0.500000 
557 1 0.568398 0.189128 0.500000 
558 1 0.577940 0.206587 0.500000 
559 1 0.588290 0.189687 0.500000 
560 1 0.597823 0.207128 0.500000 
561 1 0.608199 0.190204 0.500000 
562 1 0.617740 0.207625 0.500000 
563 1 0.628127 0.190690 0.500000 
564 1 0.637684 0.208071 0.500000 
565 1 0.648062 0.191096 0.500000 
566 1 0.657625 0.208448 0.500000 
567 1 0.667997 0.191472 0.500000 
568 1 0.677582 0.208779 0.500000 
569 1 0.687939 0.191819 0.500000 
570 1 0.697553 0.209109 0.500000 
571 1 0.707860 0.192118 0.500000 
572 1 0.717543 0.209326 0.500000 
573 1 0.727830 0.192356 0.500000 
574 1 0.737529 0.209543 0.500000 
575 1 0.747854 0.192635 0.500000 
576 1 0.757560 0.209802 0.500000 
577 1 0.767874 0.192897 0.500000 
578 1 0.777589 0.210067 0.500000 
579 1 0.787851 0.193097 0.500000 
580 1 0.797599 0.210258 0.500000 
581 1 0.807830 0.193317 0.500000 
582 1 0.817606 0.210467 0.500000 
583 1 0.827872 0.193609 0.500000 
584 1 0.837649 0.210747 0.500000 
585 1 0.847940 0.193902 0.500000 
586 1 0.857699 0.210989 0.500000 
587 1 0.867991 0.194070 0.500000 
588 1 0.877696 0.211157 0.500000 
589 1 0.888006 0.194196 0.500000 
590 1 0.897710 0.211240 0.500000 
591 1 0.908040 0.194273 0.500000 
592 1 0.917758 0.211317 0.500000 
593 1 0.928044 0.194383 0.500000 
594 1 0.937827 0.211373 0.500000 
595 1 0.948021 0.194385 0.500000 
596 1 0.957807 0.211443 0.500000 
597 1 0.968031 0.194496 0.500000 
598 1 0.977825 0.211543 0.500000 
599 1 0.988043 0.194599 0.500000 
600 1 0.997847 0.211634 0.500000 
601 1 0.008083 0.201103 0.500000 
602 1 0.017654 0.218157 0.500000 
603 1 0.028113 0.201727 0.500000 
604 1 0.037684 0.218790 0.500000 
605 1 0.048147 0.202367 0.500000 
606 1 0.057718 0.219436 0.500000 
607 1 0.068185 0.203017 0.500000 
608 1 0.077776 0.220181 0.500000 
609 1 0.088232 0.203804 0.500000 
610 1 0.097826 0.220955 0.500000 
611 1 0.108293 0.204624 0.500000 
612 1 0.117921 0.221736 0.500000 
613 1 0.128373 0.205394 0.500000 
614 1 0.138015 0.222505 0.500000 
615 1 0.148482 0.206154 0.500000 
616 1 0.158098 0.223305 0.500000 
617 1 0.168588 0.206920 0.500000 
618 1 0.178154 0.224143 0.500000 
619 1 0.188660 0.207762 0.500000 
620 1 0.198247 0.224983 0.500000 
621 1 0.208720 0.208601 0.500000 
622 1 0.218371 0.225808 0.500000 
623 1 0.228820 0.209418 0.500000 
624 1 0.238484 0.226650 0.500000 
625 1 0.248916 0.210201 0.500000 
626 1 0.258553 0.227512 0.500000 
627 1 0.268970 0.211049 0.500000 
628 1 0.278582 0.228447 0.500000 
629 1 0.288955 0.211976 0.500000 
630 1 0.298579 0.229434 0.500000 
631 1 0.308926 0.212954 0.500000 
632 1 0.318570 0.230429 0.500000 
633 1 0.328908 0.213924 0.500000 
634 1 0.338554 0.231411 0.500000 
635 1 0.348868 0.214862 0.500000 
636 1 0.358519 0.232378 0.500000 
637 1 0.368791 0.215807 0.500000 
638 1 0.378483 0.233330 0.500000 
639 1 0.388717 0.216752 0.500000 
640 1 0.398450 0.234248 0.500000 
641 1 0.408659 0.217627 0.500000 
642 1 0.418381 0.235139 0.500000 
643 1 0.428581 0.218469 0.500000 
644 1 0.438258 0.236049 0.500000 
645 1 0.448454 0.219329 0.500000 
646 1 0.458128 0.236921 0.500000 
647 1 0.468326 0.220147 0.500000 
648 1 0.477996 0.237733 0.500000 
649 1 0.488203 0.220913 0.500000 
650 1 0.497866 0.238489 0.500000 
651 1 0.508070 0.221634 0.500000 
652 1 0.517735 0.239195 0.500000 
653 1 0.527935 0.222291 0.500000 
654 1 0.537582 0.239856 0.500000 
655 1 0.547803 0.222938 0.500000 
656 1 0.557450 0.240447 0.500000 
657 1 0.567680 0.223517 0.500000 
658 1 0.577330 0.241007 0.500000 
659 1 0.587550 0.224052 0.500000 
660 1 0.597224 0.241493 0.500000 
661 1 0.607441 0.224541 0.500000 
662 1 0.617120 0.241940 0.500000 
663 1 0.627361 0.225004 0.500000 
664 1 0.637060 0.242332 0.500000 
665 1 0.647314 0.225417 0.500000 
666 1 0.657031 0.242735 0.500000 
667 1 0.667266 0.225763 0.500000 
668 1 0.677001 0.243085 0.500000 
669 1 0.687219 0.226086 0.500000 
670 1 0.696973 0.243348 0.500000 
671 1 0.707218 0.226335 0.500000 
672 1 0.716972 0.243568 0.500000 
673 1 0.727224 0.226535 0.500000 
674 1 0.736981 0.243720 0.500000 
675 1 0.747245 0.226712 0.500000 
676 1 0.756987 0.243900 0.500000 
677 1 0.767265 0.226975 0.500000 
678 1 0.777026 0.244130 0.500000 
679 1 0.787279 0.227209 0.500000 
680 1 0.797027 0.244387 0.500000 
681 1 0.807266 0.227403 0.500000 
682 1 0.816984 0.244544 0.500000 
683 1 0.827288 0.227598 0.500000 
684 1 0.836954 0.244690 0.500000 
685 1 0.847357 0.227842 0.500000 
686 1 0.857005 0.244898 0.500000 
687 1 0.867426 0.228070 0.500000 
688 1 0.877100 0.245117 0.500000 
689 1 0.887451 0.228203 0.500000 
690 1 0.897203 0.245210 0.500000 
691 1 0.907469 0.228278 0.500000 
692 1 0.917256 0.245299 0.500000 
693 1 0.927509 0.228328 0.500000 
694 1 0.937311 0.245361 0.500000 
695 1 0.947580 0.228392 0.500000 
696 1 0.957383 0.245436 0.500000 
697 1 0.967605 0.228489 0.500000 
698 1 0.977417 0.245522 0.500000 
699 1 0.987634 0.228577 0.500000 
700 1 0.997455 0.245600 0.500000 
701 1 0.007189 0.234587 0.500000 
702 1 0.016737 0.251640 0.500000 
703 1 0.027214 0.235215 0.500000 
704 1 0.036760 0.252274 0.500000 
705 1 0.047243 0.235854 0.500000 
706 1 0.056787 0.252921 0.500000 
707 1 0.067275 0.236508 0.500000 
708 1 0.076838 0.253649 0.500000 
709 1 0.087351 0.237308 0.500000 
710 1 0.096904 0.254432 0.500000 
711 1 0.107452 0.238085 0.500000 
712 1 0.116966 0.255247 0.500000 
713 1 0.127515 0.238868 0.500000 
714 1 0.137008 0.256036 0.500000 
715 1 0.147552 0.239666 0.500000 
716 1 0.157091 0.256832 0.500000 
717 1 0.167615 0.240486 0.500000 
718 1 0.177198 0.257628 0.500000 
719 1 0.187740 0.241315 0.500000 
720 1 0.197345 0.258464 0.500000 
721 1 0.207878 0.242151 0.500000 
722 1 0.217498 0.259330 0.500000 
723 1 0.228005 0.243028 0.500000 
724 1 0.237644 0.260288 0.500000 
725 1 0.248116 0.243945 0.500000 
726 1 0.257729 0.261305 0.500000 
727 1 0.268184 0.244901 0.500000 
728 1 0.277764 0.262343 0.500000 
729 1 0.288202 0.245908 0.500000 
730 1 0.297787 0.263368 0.500000 
731 1 0.308194 0.246917 0.500000 
732 1 0.317819 0.264373 0.500000 
733 1 0.328207 0.247919 0.500000 
734 1 0.337858 0.265394 0.500000 
735 1 0.348228 0.248909 0.500000 
736 1 0.357860 0.266405 0.500000 
737 1 0.368225 0.249884 0.500000 
738 1 0.377840 0.267397 0.500000 
739 1 0.388194 0.250830 0.500000 
740 1 0.397805 0.268383 0.500000 
741 1 0.408143 0.251775 0.500000 
742 1 0.417723 0.269413 0.500000 
743 1 0.428041 0.252736 0.500000 
744 1 0.437607 0.270430 0.500000 
745 1 0.447907 0.253663 0.500000 
746 1 0.457478 0.271348 0.500000 
747 1 0.467775 0.254532 0.500000 
748 1 0.477355 0.272197 0.500000 
749 1 0.487650 0.255328 0.500000 
750 1 0.497238 0.272997 0.500000 
751 1 0.507508 0.256064 0.500000 
752 1 0.517102 0.273710 0.500000 
753 1 0.527357 0.256770 0.500000 
754 1 0.536965 0.274340 0.500000 
755 1 0.547208 0.257389 0.500000 
756 1 0.556830 0.274933 0.500000 
757 1 0.567058 0.257958 0.500000 
758 1 0.576721 0.275436 0.500000 
759 1 0.586944 0.258456 0.500000 
760 1 0.596606 0.275919 0.500000 
761 1 0.606848 0.258938 0.500000 
762 1 0.616516 0.276353 0.500000 
763 1 0.626763 0.259321 0.500000 
764 1 0.636433 0.276727 0.500000 
765 1 0.646694 0.259667 0.500000 
766 1 0.656372 0.277006 0.500000 
767 1 0.666695 0.260032 0.500000 
768 1 0.676352 0.277342 0.500000 
769 1 0.686700 0.260377 0.500000 
770 1 0.696399 0.277599 0.500000 
771 1 0.706711 0.260593 0.500000 
772 1 0.716426 0.277830 0.500000 
773 1 0.726723 0.260783 0.500000 
774 1 0.736452 0.277988 0.500000 
775 1 0.746717 0.260929 0.500000 
776 1 0.756425 0.278123 0.500000 
777 1 0.766706 0.261068 0.500000 
778 1 0.776404 0.278228 0.500000 
779 1 0.786738 0.261298 0.500000 
780 1 0.796416 0.278429 0.500000 
781 1 0.806770 0.261528 0.500000 
782 1 0.816441 0.278611 0.500000 
783 1 0.826742 0.261653 0.500000 
784 1 0.836445 0.278700 0.500000 
785 1 0.846713 0.261740 0.500000 
786 1 0.856486 0.278792 0.500000 
787 1 0.866742 0.261956 0.500000 
788 1 0.876571 0.278994 0.500000 
789 1 0.886842 0.262130 0.500000 
790 1 0.896679 0.279183 0.500000 
791 1 0.906950 0.262239 0.500000 
792 1 0.916790 0.279265 0.500000 
793 1 0.927061 0.262291 0.500000 
794 1 0.936872 0.279318 0.500000 
795 1 0.947159 0.262387 0.500000 
796 1 0.956982 0.279417 0.500000 
797 1 0.967200 0.262468 0.500000 
798 1 0.977036 0.279488 0.500000 
799 1 0.987245 0.262544 0.500000 
800 1 0.997089 0.279555 0.500000 
801 1 0.006256 0.268068 0.500000 
802 1 0.015779 0.285121 0.500000 
803 1 0.026272 0.268696 0.500000 
804 1 0.035792 0.285753 0.500000 
805 1 0.046292 0.269335 0.500000 
806 1 0.055810 0.286400 0.500000 
807 1 0.066319 0.269991 0.500000 
808 1 0.075871 0.287130 0.500000 
809 1 0.086399 0.270794 0.500000 
810 1 0.095926 0.287922 0.500000 
811 1 0.106439 0.271583 0.500000 
812 1 0.115962 0.288731 0.500000 
813 1 0.126487 0.272403 0.500000 
814 1 0.136036 0.289537 0.500000 
815 1 0.146566 0.273184 0.500000 
816 1 0.156142 0.290333 0.500000 
817 1 0.166669 0.273988 0.500000 
818 1 0.176279 0.291108 0.500000 
819 1 0.186796 0.274768 0.500000 
820 1 0.196421 0.291916 0.500000 
821 1 0.206967 0.275617 0.500000 
822 1 0.216554 0.292862 0.500000 
823 1 0.227104 0.276568 0.500000 
824 1 0.236640 0.293919 0.500000 
825 1 0.247197 0.277639 0.500000 
826 1 0.256733 0.295009 0.500000 
827 1 0.267260 0.278701 0.500000 
828 1 0.276826 0.296039 0.500000 
829 1 0.287333 0.279733 0.500000 
830 1 0.296886 0.297092 0.500000 
831 1 0.307380 0.280761 0.500000 
832 1 0.316913 0.298190 0.500000 
833 1 0.327400 0.281810 0.500000 
834 1 0.336956 0.299302 0.500000 
835 1 0.347421 0.282888 0.500000 
836 1 0.357022 0.300404 0.500000 
837 1 0.367443 0.283930 0.500000 
838 1 0.377029 0.301509 0.500000 
839 1 0.387438 0.284975 0.500000 
840 1 0.396974 0.302637 0.500000 
841 1 0.407369 0.286083 0.500000 
842 1 0.416928 0.303748 0.500000 
843 1 0.427280 0.287139 0.500000 
844 1 0.436860 0.304780 0.500000 
845 1 0.447194 0.288126 0.500000 
846 1 0.456733 0.305837 0.500000 
847 1 0.467070 0.289075 0.500000 
848 1 0.476553 0.306851 0.500000 
849 1 0.486915 0.289947 0.500000 
850 1 0.496397 0.307660 0.500000 
851 1 0.506798 0.290710 0.500000 
852 1 0.516269 0.308364 0.500000 
853 1 0.526705 0.291370 0.500000 
854 1 0.536176 0.309018 0.500000 
855 1 0.546593 0.291964 0.500000 
856 1 0.556109 0.309546 0.500000 
857 1 0.566500 0.292452 0.500000 
858 1 0.576049 0.309980 0.500000 
859 1 0.586414 0.292917 0.500000 
860 1 0.596002 0.310346 0.500000 
861 1 0.606340 0.293325 0.500000 
862 1 0.615950 0.310704 0.500000 
863 1 0.626261 0.293752 0.500000 
864 1 0.635937 0.311084 0.500000 
865 1 0.646194 0.294107 0.500000 
866 1 0.655910 0.311483 0.500000 
867 1 0.666121 0.294394 0.500000 
868 1 0.675864 0.311724 0.500000 
869 1 0.686120 0.294613 0.500000 
870 1 0.695866 0.311899 0.500000 
871 1 0.706140 0.294845 0.500000 
872 1 0.715896 0.312043 0.500000 
873 1 0.726173 0.294998 0.500000 
874 1 0.735872 0.312178 0.500000 
875 1 0.746176 0.295179 0.500000 
876 1 0.755881 0.312285 0.500000 
877 1 0.766168 0.295265 0.500000 
878 1 0.775860 0.312418 0.500000 
879 1 0.786133 0.295379 0.500000 
880 1 0.795846 0.312466 0.500000 
881 1 0.806163 0.295504 0.500000 