ITEM: TIMESTEP
100
ITEM: NUMBER OF ATOMS
2850
ITEM: BOX BOUNDS ss ss pp
-28.0536 28.3253 
-28.9988 28.9984 
-0.5 0.5 
ITEM: ATOMS id type xs ys zs
1 1 0.012661 0.000000 0.500000 
2 1 0.022340 0.017073 0.500000 
3 1 0.032688 0.000597 0.500000 
4 1 0.042369 0.017677 0.500000 
5 1 0.052715 0.001202 0.500000 
6 1 0.062397 0.018289 0.500000 
7 1 0.072742 0.001814 0.500000 
8 1 0.082426 0.018911 0.500000 
9 1 0.092767 0.002433 0.500000 
10 1 0.102455 0.019539 0.500000 
11 1 0.112794 0.003060 0.500000 
12 1 0.122484 0.020177 0.500000 
13 1 0.132817 0.003697 0.500000 
14 1 0.142511 0.020822 0.500000 
15 1 0.152841 0.004338 0.500000 
16 1 0.162536 0.021475 0.500000 
17 1 0.172861 0.004988 0.500000 
18 1 0.182559 0.022136 0.500000 
19 1 0.192879 0.005643 0.500000 
20 1 0.202579 0.022803 0.500000 
21 1 0.212895 0.006305 0.500000 
22 1 0.222596 0.023475 0.500000 
23 1 0.232906 0.006973 0.500000 
24 1 0.242610 0.024155 0.500000 
25 1 0.252912 0.007645 0.500000 
26 1 0.262618 0.024839 0.500000 
27 1 0.272914 0.008319 0.500000 
28 1 0.282622 0.025527 0.500000 
29 1 0.292911 0.008997 0.500000 
30 1 0.302619 0.026217 0.500000 
31 1 0.312901 0.009676 0.500000 
32 1 0.322610 0.026908 0.500000 
33 1 0.332885 0.010356 0.500000 
34 1 0.342593 0.027600 0.500000 
35 1 0.352861 0.011033 0.500000 
36 1 0.362570 0.028289 0.500000 
37 1 0.372830 0.011707 0.500000 
38 1 0.382537 0.028974 0.500000 
39 1 0.392791 0.012376 0.500000 
40 1 0.402497 0.029655 0.500000 
41 1 0.412744 0.013039 0.500000 
42 1 0.422448 0.030326 0.500000 
43 1 0.432688 0.013694 0.500000 
44 1 0.442390 0.030989 0.500000 
45 1 0.452624 0.014337 0.500000 
46 1 0.462324 0.031639 0.500000 
47 1 0.472553 0.014968 0.500000 
48 1 0.482250 0.032276 0.500000 
49 1 0.492474 0.015584 0.500000 
50 1 0.502167 0.032896 0.500000 
51 1 0.512388 0.016184 0.500000 
52 1 0.522078 0.033498 0.500000 
53 1 0.532295 0.016766 0.500000 
54 1 0.541983 0.034081 0.500000 
55 1 0.552198 0.017330 0.500000 
56 1 0.561882 0.034643 0.500000 
57 1 0.572095 0.017873 0.500000 
58 1 0.581777 0.035184 0.500000 
59 1 0.591989 0.018396 0.500000 
60 1 0.601668 0.035702 0.500000 
61 1 0.611880 0.018896 0.500000 
62 1 0.621558 0.036195 0.500000 
63 1 0.631769 0.019373 0.500000 
64 1 0.641446 0.036666 0.500000 
65 1 0.651657 0.019829 0.500000 
66 1 0.661334 0.037110 0.500000 
67 1 0.671546 0.020261 0.500000 
68 1 0.681223 0.037533 0.500000 
69 1 0.691436 0.020670 0.500000 
70 1 0.701115 0.037931 0.500000 
71 1 0.711328 0.021058 0.500000 
72 1 0.721007 0.038307 0.500000 
73 1 0.731222 0.021423 0.500000 
74 1 0.740905 0.038660 0.500000 
75 1 0.751120 0.021768 0.500000 
76 1 0.760806 0.038993 0.500000 
77 1 0.771021 0.022094 0.500000 
78 1 0.780711 0.039305 0.500000 
79 1 0.790927 0.022399 0.500000 
80 1 0.800620 0.039597 0.500000 
81 1 0.810837 0.022687 0.500000 
82 1 0.820536 0.039873 0.500000 
83 1 0.830751 0.022958 0.500000 
84 1 0.840456 0.040130 0.500000 
85 1 0.850671 0.023211 0.500000 
86 1 0.860382 0.040369 0.500000 
87 1 0.870595 0.023449 0.500000 
88 1 0.880312 0.040595 0.500000 
89 1 0.890525 0.023674 0.500000 
90 1 0.900248 0.040807 0.500000 
91 1 0.910459 0.023884 0.500000 
92 1 0.920188 0.041005 0.500000 
93 1 0.930398 0.024080 0.500000 
94 1 0.940134 0.041192 0.500000 
95 1 0.950341 0.024267 0.500000 
96 1 0.960084 0.041368 0.500000 
97 1 0.970290 0.024443 0.500000 
98 1 0.980040 0.041531 0.500000 
99 1 0.990243 0.024606 0.500000 
100 1 1.000000 0.041686 0.500000 
101 1 0.011983 0.033545 0.500000 
102 1 0.021650 0.050615 0.500000 
103 1 0.032014 0.034148 0.500000 
104 1 0.041680 0.051227 0.500000 
105 1 0.052044 0.034760 0.500000 
106 1 0.061715 0.051847 0.500000 
107 1 0.072075 0.035381 0.500000 
108 1 0.081749 0.052478 0.500000 
109 1 0.092107 0.036012 0.500000 
110 1 0.101784 0.053119 0.500000 
111 1 0.112138 0.036650 0.500000 
112 1 0.121817 0.053769 0.500000 
113 1 0.132168 0.037297 0.500000 
114 1 0.141850 0.054427 0.500000 
115 1 0.152197 0.037952 0.500000 
116 1 0.161881 0.055093 0.500000 
117 1 0.172226 0.038617 0.500000 
118 1 0.181910 0.055770 0.500000 
119 1 0.192251 0.039288 0.500000 
120 1 0.201937 0.056452 0.500000 
121 1 0.212274 0.039967 0.500000 
122 1 0.221961 0.057143 0.500000 
123 1 0.232293 0.040654 0.500000 
124 1 0.241981 0.057841 0.500000 
125 1 0.252309 0.041345 0.500000 
126 1 0.261997 0.058545 0.500000 
127 1 0.272318 0.042042 0.500000 
128 1 0.282007 0.059254 0.500000 
129 1 0.292324 0.042743 0.500000 
130 1 0.302011 0.059967 0.500000 
131 1 0.312323 0.043447 0.500000 
132 1 0.322008 0.060681 0.500000 
133 1 0.332314 0.044150 0.500000 
134 1 0.341998 0.061398 0.500000 
135 1 0.352297 0.044856 0.500000 
136 1 0.361980 0.062113 0.500000 
137 1 0.372273 0.045557 0.500000 
138 1 0.381954 0.062825 0.500000 
139 1 0.392240 0.046254 0.500000 
140 1 0.401920 0.063532 0.500000 
141 1 0.412198 0.046944 0.500000 
142 1 0.421875 0.064233 0.500000 
143 1 0.432147 0.047626 0.500000 
144 1 0.441821 0.064924 0.500000 
145 1 0.452087 0.048297 0.500000 
146 1 0.461759 0.065605 0.500000 
147 1 0.472018 0.048954 0.500000 
148 1 0.481687 0.066270 0.500000 
149 1 0.491940 0.049595 0.500000 
150 1 0.501608 0.066918 0.500000 
151 1 0.511855 0.050220 0.500000 
152 1 0.521520 0.067548 0.500000 
153 1 0.531762 0.050823 0.500000 
154 1 0.541424 0.068155 0.500000 
155 1 0.551663 0.051406 0.500000 
156 1 0.561323 0.068739 0.500000 
157 1 0.571560 0.051966 0.500000 
158 1 0.581218 0.069299 0.500000 
159 1 0.591452 0.052503 0.500000 
160 1 0.601109 0.069830 0.500000 
161 1 0.611341 0.053013 0.500000 
162 1 0.620997 0.070334 0.500000 
163 1 0.631230 0.053499 0.500000 
164 1 0.640886 0.070811 0.500000 
165 1 0.651117 0.053960 0.500000 
166 1 0.660776 0.071261 0.500000 
167 1 0.671006 0.054396 0.500000 
168 1 0.680667 0.071684 0.500000 
169 1 0.690897 0.054806 0.500000 
170 1 0.700562 0.072079 0.500000 
171 1 0.710789 0.055192 0.500000 
172 1 0.720459 0.072451 0.500000 
173 1 0.730685 0.055554 0.500000 
174 1 0.740361 0.072797 0.500000 
175 1 0.750586 0.055894 0.500000 
176 1 0.760267 0.073122 0.500000 
177 1 0.770490 0.056213 0.500000 
178 1 0.780180 0.073425 0.500000 
179 1 0.790400 0.056511 0.500000 
180 1 0.800096 0.073707 0.500000 
181 1 0.810316 0.056789 0.500000 
182 1 0.820018 0.073970 0.500000 
183 1 0.830238 0.057049 0.500000 
184 1 0.839945 0.074216 0.500000 
185 1 0.850164 0.057294 0.500000 
186 1 0.859879 0.074446 0.500000 
187 1 0.870095 0.057522 0.500000 
188 1 0.879818 0.074660 0.500000 
189 1 0.890032 0.057734 0.500000 
190 1 0.899762 0.074860 0.500000 
191 1 0.909975 0.057934 0.500000 
192 1 0.919711 0.075047 0.500000 
193 1 0.929922 0.058120 0.500000 
194 1 0.939664 0.075224 0.500000 
195 1 0.949875 0.058294 0.500000 
196 1 0.959621 0.075390 0.500000 
197 1 0.969833 0.058458 0.500000 
198 1 0.979588 0.075542 0.500000 
199 1 0.989796 0.058613 0.500000 
200 1 0.999557 0.075685 0.500000 
201 1 0.011275 0.067077 0.500000 
202 1 0.020924 0.084144 0.500000 
203 1 0.031308 0.067688 0.500000 
204 1 0.040959 0.084763 0.500000 
205 1 0.051342 0.068307 0.500000 
206 1 0.060994 0.085390 0.500000 
207 1 0.071376 0.068936 0.500000 
208 1 0.081035 0.086031 0.500000 
209 1 0.091415 0.069579 0.500000 
210 1 0.101075 0.086686 0.500000 
211 1 0.111453 0.070231 0.500000 
212 1 0.121115 0.087348 0.500000 
213 1 0.131488 0.070892 0.500000 
214 1 0.141154 0.088020 0.500000 
215 1 0.151523 0.071561 0.500000 
216 1 0.161191 0.088702 0.500000 
217 1 0.171557 0.072240 0.500000 
218 1 0.181227 0.089392 0.500000 
219 1 0.191589 0.072927 0.500000 
220 1 0.201261 0.090091 0.500000 
221 1 0.211617 0.073623 0.500000 
222 1 0.221292 0.090799 0.500000 
223 1 0.231643 0.074326 0.500000 
224 1 0.241320 0.091516 0.500000 
225 1 0.251665 0.075036 0.500000 
226 1 0.261342 0.092240 0.500000 
227 1 0.271681 0.075753 0.500000 
228 1 0.281360 0.092969 0.500000 
229 1 0.291690 0.076474 0.500000 
230 1 0.301371 0.093705 0.500000 
231 1 0.311695 0.077199 0.500000 
232 1 0.321374 0.094443 0.500000 
233 1 0.331691 0.077927 0.500000 
234 1 0.341371 0.095184 0.500000 
235 1 0.351680 0.078655 0.500000 
236 1 0.361359 0.095925 0.500000 
237 1 0.371661 0.079383 0.500000 
238 1 0.381337 0.096666 0.500000 
239 1 0.391633 0.080106 0.500000 
240 1 0.401307 0.097402 0.500000 
241 1 0.411595 0.080826 0.500000 
242 1 0.421267 0.098134 0.500000 
243 1 0.431548 0.081537 0.500000 
244 1 0.441217 0.098857 0.500000 
245 1 0.451492 0.082239 0.500000 
246 1 0.461158 0.099569 0.500000 
247 1 0.471427 0.082929 0.500000 
248 1 0.481089 0.100269 0.500000 
249 1 0.491352 0.083602 0.500000 
250 1 0.501011 0.100951 0.500000 
251 1 0.511269 0.084257 0.500000 
252 1 0.520924 0.101613 0.500000 
253 1 0.531178 0.084891 0.500000 
254 1 0.540829 0.102250 0.500000 
255 1 0.551080 0.085500 0.500000 
256 1 0.560729 0.102860 0.500000 
257 1 0.570977 0.086084 0.500000 
258 1 0.580624 0.103440 0.500000 
259 1 0.590870 0.086639 0.500000 
260 1 0.600516 0.103988 0.500000 
261 1 0.610760 0.087165 0.500000 
262 1 0.620408 0.104504 0.500000 
263 1 0.630650 0.087659 0.500000 
264 1 0.640299 0.104987 0.500000 
265 1 0.650540 0.088125 0.500000 
266 1 0.660193 0.105438 0.500000 
267 1 0.670433 0.088561 0.500000 
268 1 0.680090 0.105858 0.500000 
269 1 0.690329 0.088969 0.500000 
270 1 0.699990 0.106248 0.500000 
271 1 0.710228 0.089349 0.500000 
272 1 0.719894 0.106612 0.500000 
273 1 0.730130 0.089703 0.500000 
274 1 0.739803 0.106949 0.500000 
275 1 0.750039 0.090033 0.500000 
276 1 0.759718 0.107262 0.500000 
277 1 0.769952 0.090341 0.500000 
278 1 0.779637 0.107553 0.500000 
279 1 0.789870 0.090627 0.500000 
280 1 0.799563 0.107822 0.500000 
281 1 0.809794 0.090894 0.500000 
282 1 0.819493 0.108073 0.500000 
283 1 0.829723 0.091142 0.500000 
284 1 0.839430 0.108306 0.500000 
285 1 0.849658 0.091374 0.500000 
286 1 0.859373 0.108522 0.500000 
287 1 0.869598 0.091589 0.500000 
288 1 0.879321 0.108724 0.500000 
289 1 0.889544 0.091791 0.500000 
290 1 0.899273 0.108913 0.500000 
291 1 0.909494 0.091979 0.500000 
292 1 0.919231 0.109089 0.500000 
293 1 0.929449 0.092156 0.500000 
294 1 0.939193 0.109257 0.500000 
295 1 0.949407 0.092323 0.500000 
296 1 0.959160 0.109410 0.500000 
297 1 0.969375 0.092475 0.500000 
298 1 0.979136 0.109550 0.500000 
299 1 0.989349 0.092617 0.500000 
300 1 0.999117 0.109681 0.500000 
301 1 0.010532 0.100598 0.500000 
302 1 0.020165 0.117663 0.500000 
303 1 0.030566 0.101214 0.500000 
304 1 0.040201 0.118287 0.500000 
305 1 0.050602 0.101839 0.500000 
306 1 0.060239 0.118920 0.500000 
307 1 0.070640 0.102476 0.500000 
308 1 0.080281 0.119570 0.500000 
309 1 0.090683 0.103131 0.500000 
310 1 0.100325 0.120234 0.500000 
311 1 0.110726 0.103795 0.500000 
312 1 0.120370 0.120910 0.500000 
313 1 0.130769 0.104470 0.500000 
314 1 0.140415 0.121595 0.500000 
315 1 0.150810 0.105153 0.500000 
316 1 0.160459 0.122291 0.500000 
317 1 0.170851 0.105847 0.500000 
318 1 0.180504 0.122996 0.500000 
319 1 0.190889 0.106549 0.500000 
320 1 0.200546 0.123712 0.500000 
321 1 0.210926 0.107261 0.500000 
322 1 0.220586 0.124438 0.500000 
323 1 0.230961 0.107983 0.500000 
324 1 0.240622 0.125174 0.500000 
325 1 0.250990 0.108713 0.500000 
326 1 0.260655 0.125919 0.500000 
327 1 0.271015 0.109451 0.500000 
328 1 0.280682 0.126672 0.500000 
329 1 0.291034 0.110195 0.500000 
330 1 0.300702 0.127432 0.500000 
331 1 0.311045 0.110946 0.500000 
332 1 0.320714 0.128197 0.500000 
333 1 0.331050 0.111698 0.500000 
334 1 0.340719 0.128966 0.500000 
335 1 0.351044 0.112453 0.500000 
336 1 0.360713 0.129736 0.500000 
337 1 0.371031 0.113210 0.500000 
338 1 0.380699 0.130508 0.500000 
339 1 0.391008 0.113963 0.500000 
340 1 0.400674 0.131277 0.500000 
341 1 0.410975 0.114714 0.500000 
342 1 0.420639 0.132043 0.500000 
343 1 0.430933 0.115459 0.500000 
344 1 0.440594 0.132801 0.500000 
345 1 0.450880 0.116195 0.500000 
346 1 0.460538 0.133550 0.500000 
347 1 0.470817 0.116919 0.500000 
348 1 0.480471 0.134287 0.500000 
349 1 0.490745 0.117628 0.500000 
350 1 0.500395 0.135006 0.500000 
351 1 0.510663 0.118317 0.500000 
352 1 0.520309 0.135703 0.500000 
353 1 0.530572 0.118983 0.500000 
354 1 0.540215 0.136372 0.500000 
355 1 0.550475 0.119622 0.500000 
356 1 0.560115 0.137009 0.500000 
357 1 0.570373 0.120230 0.500000 
358 1 0.580011 0.137612 0.500000 
359 1 0.590266 0.120804 0.500000 
360 1 0.599904 0.138176 0.500000 
361 1 0.610159 0.121343 0.500000 
362 1 0.619797 0.138701 0.500000 
363 1 0.630052 0.121846 0.500000 
364 1 0.639693 0.139189 0.500000 
365 1 0.649946 0.122314 0.500000 
366 1 0.659590 0.139638 0.500000 
367 1 0.669844 0.122748 0.500000 
368 1 0.679493 0.140053 0.500000 
369 1 0.689745 0.123150 0.500000 
370 1 0.699400 0.140436 0.500000 
371 1 0.709651 0.123522 0.500000 
372 1 0.719312 0.140789 0.500000 
373 1 0.729561 0.123868 0.500000 
374 1 0.739230 0.141115 0.500000 
375 1 0.749478 0.124186 0.500000 
376 1 0.759153 0.141415 0.500000 
377 1 0.769399 0.124481 0.500000 
378 1 0.779083 0.141692 0.500000 
379 1 0.789326 0.124756 0.500000 
380 1 0.799018 0.141948 0.500000 
381 1 0.809260 0.125007 0.500000 
382 1 0.818958 0.142183 0.500000 
383 1 0.829198 0.125242 0.500000 
384 1 0.838906 0.142402 0.500000 
385 1 0.849142 0.125459 0.500000 
386 1 0.858858 0.142604 0.500000 
387 1 0.869092 0.125661 0.500000 
388 1 0.878817 0.142792 0.500000 
389 1 0.889048 0.125851 0.500000 
390 1 0.898780 0.142968 0.500000 
391 1 0.909007 0.126027 0.500000 
392 1 0.918747 0.143132 0.500000 
393 1 0.928972 0.126193 0.500000 
394 1 0.938722 0.143286 0.500000 
395 1 0.948940 0.126349 0.500000 
396 1 0.958701 0.143428 0.500000 
397 1 0.968919 0.126487 0.500000 
398 1 0.978689 0.143555 0.500000 
399 1 0.988905 0.126616 0.500000 
400 1 0.998682 0.143674 0.500000 
401 1 0.009754 0.134110 0.500000 
402 1 0.019367 0.151171 0.500000 
403 1 0.029790 0.134729 0.500000 
404 1 0.039403 0.151799 0.500000 
405 1 0.049825 0.135360 0.500000 
406 1 0.059442 0.152437 0.500000 
407 1 0.069865 0.136003 0.500000 
408 1 0.079486 0.153094 0.500000 
409 1 0.089911 0.136667 0.500000 
410 1 0.099533 0.153768 0.500000 
411 1 0.109958 0.137342 0.500000 
412 1 0.119581 0.154454 0.500000 
413 1 0.130005 0.138028 0.500000 
414 1 0.139631 0.155151 0.500000 
415 1 0.150052 0.138725 0.500000 
416 1 0.159682 0.155859 0.500000 
417 1 0.170101 0.139433 0.500000 
418 1 0.179733 0.156579 0.500000 
419 1 0.190148 0.140151 0.500000 
420 1 0.199784 0.157311 0.500000 
421 1 0.210194 0.140880 0.500000 
422 1 0.219834 0.158055 0.500000 
423 1 0.230238 0.141621 0.500000 
424 1 0.239881 0.158811 0.500000 
425 1 0.250277 0.142373 0.500000 
426 1 0.259925 0.159578 0.500000 
427 1 0.270312 0.143134 0.500000 
428 1 0.279962 0.160357 0.500000 
429 1 0.290342 0.143903 0.500000 
430 1 0.299994 0.161143 0.500000 
431 1 0.310363 0.144679 0.500000 
432 1 0.320017 0.161939 0.500000 
433 1 0.330377 0.145461 0.500000 
434 1 0.340031 0.162739 0.500000 
435 1 0.350381 0.146247 0.500000 
436 1 0.360036 0.163542 0.500000 
437 1 0.370375 0.147035 0.500000 
438 1 0.380029 0.164349 0.500000 
439 1 0.390360 0.147823 0.500000 
440 1 0.400013 0.165154 0.500000 
441 1 0.410333 0.148608 0.500000 
442 1 0.419986 0.165958 0.500000 
443 1 0.430296 0.149390 0.500000 
444 1 0.439946 0.166757 0.500000 
445 1 0.450248 0.150164 0.500000 
446 1 0.459896 0.167547 0.500000 
447 1 0.470189 0.150927 0.500000 
448 1 0.479834 0.168325 0.500000 
449 1 0.490119 0.151675 0.500000 
450 1 0.499760 0.169086 0.500000 
451 1 0.510039 0.152404 0.500000 
452 1 0.519676 0.169822 0.500000 
453 1 0.529949 0.153106 0.500000 
454 1 0.539582 0.170527 0.500000 
455 1 0.549852 0.153776 0.500000 
456 1 0.559481 0.171195 0.500000 
457 1 0.569749 0.154410 0.500000 
458 1 0.579376 0.171820 0.500000 
459 1 0.589644 0.155002 0.500000 
460 1 0.599270 0.172400 0.500000 
461 1 0.609537 0.155552 0.500000 
462 1 0.619165 0.172932 0.500000 
463 1 0.629432 0.156061 0.500000 
464 1 0.639063 0.173420 0.500000 
465 1 0.649331 0.156529 0.500000 
466 1 0.658966 0.173865 0.500000 
467 1 0.669234 0.156958 0.500000 
468 1 0.678875 0.174273 0.500000 
469 1 0.689142 0.157353 0.500000 
470 1 0.698790 0.174644 0.500000 
471 1 0.709055 0.157715 0.500000 
472 1 0.718711 0.174985 0.500000 
473 1 0.728975 0.158047 0.500000 
474 1 0.738639 0.175295 0.500000 
475 1 0.748900 0.158352 0.500000 
476 1 0.758572 0.175580 0.500000 
477 1 0.768832 0.158633 0.500000 
478 1 0.778513 0.175841 0.500000 
479 1 0.788768 0.158892 0.500000 
480 1 0.798459 0.176080 0.500000 
481 1 0.808712 0.159130 0.500000 
482 1 0.818413 0.176299 0.500000 
483 1 0.828662 0.159348 0.500000 
484 1 0.838371 0.176501 0.500000 
485 1 0.848618 0.159550 0.500000 
486 1 0.858337 0.176688 0.500000 
487 1 0.868580 0.159738 0.500000 
488 1 0.878308 0.176861 0.500000 
489 1 0.888547 0.159912 0.500000 
490 1 0.898285 0.177022 0.500000 
491 1 0.908519 0.160075 0.500000 
492 1 0.918268 0.177172 0.500000 
493 1 0.928496 0.160227 0.500000 
494 1 0.938255 0.177312 0.500000 
495 1 0.948477 0.160370 0.500000 
496 1 0.958249 0.177440 0.500000 
497 1 0.968470 0.160496 0.500000 
498 1 0.978251 0.177553 0.500000 
499 1 0.988467 0.160611 0.500000 
500 1 0.998258 0.177659 0.500000 
501 1 0.008938 0.167610 0.500000 
502 1 0.018532 0.184668 0.500000 
503 1 0.028972 0.168234 0.500000 
504 1 0.038566 0.185299 0.500000 
505 1 0.049008 0.168868 0.500000 
506 1 0.058602 0.185942 0.500000 
507 1 0.069047 0.169517 0.500000 
508 1 0.078646 0.186604 0.500000 
509 1 0.089095 0.170188 0.500000 
510 1 0.098693 0.187286 0.500000 
511 1 0.109143 0.170873 0.500000 
512 1 0.118743 0.187979 0.500000 
513 1 0.129194 0.171568 0.500000 
514 1 0.138796 0.188686 0.500000 
515 1 0.149246 0.172277 0.500000 
516 1 0.158852 0.189406 0.500000 
517 1 0.169301 0.172997 0.500000 
518 1 0.178909 0.190139 0.500000 
519 1 0.189356 0.173729 0.500000 
520 1 0.198967 0.190886 0.500000 
521 1 0.209410 0.174476 0.500000 
522 1 0.219027 0.191647 0.500000 
523 1 0.229464 0.175236 0.500000 
524 1 0.239084 0.192424 0.500000 
525 1 0.249515 0.176010 0.500000 
526 1 0.259139 0.193215 0.500000 
527 1 0.269561 0.176795 0.500000 
528 1 0.279189 0.194020 0.500000 
529 1 0.289603 0.177591 0.500000 
530 1 0.299234 0.194836 0.500000 
531 1 0.309636 0.178397 0.500000 
532 1 0.319270 0.195662 0.500000 
533 1 0.329661 0.179210 0.500000 
534 1 0.339296 0.196497 0.500000 
535 1 0.349677 0.180031 0.500000 
536 1 0.359313 0.197338 0.500000 
537 1 0.369681 0.180854 0.500000 
538 1 0.379317 0.198183 0.500000 
539 1 0.389675 0.181679 0.500000 
540 1 0.399311 0.199030 0.500000 
541 1 0.409658 0.182505 0.500000 
542 1 0.419292 0.199877 0.500000 
543 1 0.429628 0.183328 0.500000 
544 1 0.439262 0.200721 0.500000 
545 1 0.449587 0.184146 0.500000 
546 1 0.459218 0.201558 0.500000 
547 1 0.469534 0.184954 0.500000 
548 1 0.479162 0.202384 0.500000 
549 1 0.489469 0.185746 0.500000 
550 1 0.499093 0.203192 0.500000 
551 1 0.509391 0.186518 0.500000 
552 1 0.519011 0.203974 0.500000 
553 1 0.529302 0.187261 0.500000 
554 1 0.538918 0.204721 0.500000 
555 1 0.549205 0.187967 0.500000 
556 1 0.558816 0.205423 0.500000 
557 1 0.569101 0.188628 0.500000 
558 1 0.578710 0.206072 0.500000 
559 1 0.588994 0.189240 0.500000 
560 1 0.598605 0.206665 0.500000 
561 1 0.608889 0.189801 0.500000 
562 1 0.618502 0.207202 0.500000 
563 1 0.628787 0.190312 0.500000 
564 1 0.638405 0.207685 0.500000 
565 1 0.648691 0.190775 0.500000 
566 1 0.658315 0.208122 0.500000 
567 1 0.668600 0.191195 0.500000 
568 1 0.678232 0.208516 0.500000 
569 1 0.688515 0.191578 0.500000 
570 1 0.698158 0.208873 0.500000 
571 1 0.708439 0.191926 0.500000 
572 1 0.718090 0.209196 0.500000 
573 1 0.728369 0.192243 0.500000 
574 1 0.738030 0.209489 0.500000 
575 1 0.748304 0.192532 0.500000 
576 1 0.757976 0.209755 0.500000 
577 1 0.768248 0.192795 0.500000 
578 1 0.777930 0.209997 0.500000 
579 1 0.788198 0.193036 0.500000 
580 1 0.797891 0.210218 0.500000 
581 1 0.808155 0.193256 0.500000 
582 1 0.817858 0.210419 0.500000 
583 1 0.828118 0.193457 0.500000 
584 1 0.837834 0.210603 0.500000 
585 1 0.848088 0.193643 0.500000 
586 1 0.857815 0.210772 0.500000 
587 1 0.868064 0.193814 0.500000 
588 1 0.877802 0.210927 0.500000 
589 1 0.888046 0.193972 0.500000 
590 1 0.897796 0.211071 0.500000 
591 1 0.908034 0.194120 0.500000 
592 1 0.917794 0.211206 0.500000 
593 1 0.928025 0.194257 0.500000 
594 1 0.937798 0.211331 0.500000 
595 1 0.948021 0.194385 0.500000 
596 1 0.957807 0.211443 0.500000 
597 1 0.968031 0.194496 0.500000 
598 1 0.977825 0.211543 0.500000 
599 1 0.988043 0.194599 0.500000 
600 1 0.997847 0.211634 0.500000 
601 1 0.008083 0.201103 0.500000 
602 1 0.017654 0.218157 0.500000 
603 1 0.028113 0.201727 0.500000 
604 1 0.037684 0.218790 0.500000 
605 1 0.048147 0.202367 0.500000 
606 1 0.057718 0.219436 0.500000 
607 1 0.068185 0.203017 0.500000 
608 1 0.077758 0.220102 0.500000 
609 1 0.088231 0.203696 0.500000 
610 1 0.097803 0.220789 0.500000 
611 1 0.108279 0.204386 0.500000 
612 1 0.117853 0.221490 0.500000 
613 1 0.128331 0.205090 0.500000 
614 1 0.137906 0.222203 0.500000 
615 1 0.148387 0.205807 0.500000 
616 1 0.157964 0.222931 0.500000 
617 1 0.168444 0.206539 0.500000 
618 1 0.178026 0.223675 0.500000 
619 1 0.188506 0.207285 0.500000 
620 1 0.198090 0.224435 0.500000 
621 1 0.208568 0.208047 0.500000 
622 1 0.218157 0.225213 0.500000 
623 1 0.228631 0.208825 0.500000 
624 1 0.238224 0.226010 0.500000 
625 1 0.248694 0.209620 0.500000 
626 1 0.258290 0.226824 0.500000 
627 1 0.268752 0.210431 0.500000 
628 1 0.278353 0.227656 0.500000 
629 1 0.288806 0.211256 0.500000 
630 1 0.298412 0.228503 0.500000 
631 1 0.308853 0.212093 0.500000 
632 1 0.318462 0.229363 0.500000 
633 1 0.328892 0.212942 0.500000 
634 1 0.338502 0.230237 0.500000 
635 1 0.348920 0.213799 0.500000 
636 1 0.358533 0.231118 0.500000 
637 1 0.368937 0.214663 0.500000 
638 1 0.378550 0.232007 0.500000 
639 1 0.388942 0.215531 0.500000 
640 1 0.398555 0.232901 0.500000 
641 1 0.408935 0.216401 0.500000 
642 1 0.418548 0.233797 0.500000 
643 1 0.428916 0.217272 0.500000 
644 1 0.438528 0.234692 0.500000 
645 1 0.448884 0.218138 0.500000 
646 1 0.458493 0.235584 0.500000 
647 1 0.468838 0.218997 0.500000 
648 1 0.478445 0.236465 0.500000 
649 1 0.488778 0.219841 0.500000 
650 1 0.498381 0.237328 0.500000 
651 1 0.508705 0.220664 0.500000 
652 1 0.518303 0.238163 0.500000 
653 1 0.528618 0.221453 0.500000 
654 1 0.538211 0.238957 0.500000 
655 1 0.548521 0.222200 0.500000 
656 1 0.558110 0.239696 0.500000 
657 1 0.568416 0.222892 0.500000 
658 1 0.578005 0.240370 0.500000 
659 1 0.588310 0.223522 0.500000 
660 1 0.597900 0.240974 0.500000 
661 1 0.608206 0.224090 0.500000 
662 1 0.617802 0.241510 0.500000 
663 1 0.628109 0.224598 0.500000 
664 1 0.637712 0.241985 0.500000 
665 1 0.648019 0.225052 0.500000 
666 1 0.657633 0.242407 0.500000 
667 1 0.667938 0.225459 0.500000 
668 1 0.677562 0.242782 0.500000 
669 1 0.687865 0.225825 0.500000 
670 1 0.697502 0.243119 0.500000 
671 1 0.707801 0.226154 0.500000 
672 1 0.717450 0.243422 0.500000 
673 1 0.727745 0.226452 0.500000 
674 1 0.737405 0.243693 0.500000 
675 1 0.747696 0.226721 0.500000 
676 1 0.757368 0.243939 0.500000 
677 1 0.767654 0.226964 0.500000 
678 1 0.777340 0.244159 0.500000 
679 1 0.787619 0.227185 0.500000 
680 1 0.797318 0.244358 0.500000 
681 1 0.807592 0.227386 0.500000 
682 1 0.817304 0.244539 0.500000 
683 1 0.827573 0.227568 0.500000 
684 1 0.837298 0.244701 0.500000 
685 1 0.847559 0.227734 0.500000 
686 1 0.857298 0.244851 0.500000 
687 1 0.867552 0.227886 0.500000 
688 1 0.877305 0.244987 0.500000 
689 1 0.887552 0.228028 0.500000 
690 1 0.897316 0.245115 0.500000 
691 1 0.907556 0.228158 0.500000 
692 1 0.917334 0.245231 0.500000 
693 1 0.927566 0.228279 0.500000 
694 1 0.937355 0.245340 0.500000 
695 1 0.947580 0.228392 0.500000 
696 1 0.957383 0.245436 0.500000 
697 1 0.967605 0.228489 0.500000 
698 1 0.977417 0.245522 0.500000 
699 1 0.987634 0.228577 0.500000 
700 1 0.997455 0.245600 0.500000 
701 1 0.007189 0.234587 0.500000 
702 1 0.016737 0.251640 0.500000 
703 1 0.027214 0.235215 0.500000 
704 1 0.036760 0.252274 0.500000 
705 1 0.047243 0.235854 0.500000 
706 1 0.056787 0.252921 0.500000 
707 1 0.067275 0.236508 0.500000 
708 1 0.076822 0.253590 0.500000 
709 1 0.087317 0.237190 0.500000 
710 1 0.096861 0.254279 0.500000 
711 1 0.107363 0.237885 0.500000 
712 1 0.116907 0.254982 0.500000 
713 1 0.127413 0.238595 0.500000 
714 1 0.136958 0.255701 0.500000 
715 1 0.147468 0.239318 0.500000 
716 1 0.157014 0.256436 0.500000 
717 1 0.167527 0.240058 0.500000 
718 1 0.177076 0.257188 0.500000 
719 1 0.187592 0.240815 0.500000 
720 1 0.197143 0.257959 0.500000 
721 1 0.207660 0.241591 0.500000 
722 1 0.217214 0.258751 0.500000 
723 1 0.227731 0.242386 0.500000 
724 1 0.237289 0.259564 0.500000 
725 1 0.247802 0.243201 0.500000 
726 1 0.257365 0.260400 0.500000 
727 1 0.267874 0.244036 0.500000 
728 1 0.277442 0.261257 0.500000 
729 1 0.287941 0.244890 0.500000 
730 1 0.297514 0.262136 0.500000 
731 1 0.308003 0.245762 0.500000 
732 1 0.317581 0.263033 0.500000 
733 1 0.328057 0.246648 0.500000 
734 1 0.337638 0.263947 0.500000 
735 1 0.348100 0.247547 0.500000 
736 1 0.357683 0.264874 0.500000 
737 1 0.368131 0.248456 0.500000 
738 1 0.377715 0.265812 0.500000 
739 1 0.388150 0.249372 0.500000 
740 1 0.397735 0.266759 0.500000 
741 1 0.408155 0.250293 0.500000 
742 1 0.417742 0.267711 0.500000 
743 1 0.428148 0.251218 0.500000 
744 1 0.437733 0.268668 0.500000 
745 1 0.448126 0.252142 0.500000 
746 1 0.457710 0.269624 0.500000 
747 1 0.468090 0.253060 0.500000 
748 1 0.477670 0.270570 0.500000 
749 1 0.488037 0.253965 0.500000 
750 1 0.497613 0.271499 0.500000 
751 1 0.507969 0.254846 0.500000 
752 1 0.517539 0.272395 0.500000 
753 1 0.527885 0.255690 0.500000 
754 1 0.537451 0.273241 0.500000 
755 1 0.547790 0.256481 0.500000 
756 1 0.557353 0.274021 0.500000 
757 1 0.567687 0.257205 0.500000 
758 1 0.577250 0.274719 0.500000 
759 1 0.587582 0.257852 0.500000 
760 1 0.597151 0.275330 0.500000 
761 1 0.607483 0.258422 0.500000 
762 1 0.617061 0.275859 0.500000 
763 1 0.627393 0.258921 0.500000 
764 1 0.636983 0.276317 0.500000 
765 1 0.647314 0.259360 0.500000 
766 1 0.656919 0.276718 0.500000 
767 1 0.667248 0.259747 0.500000 
768 1 0.676868 0.277070 0.500000 
769 1 0.687191 0.260091 0.500000 
770 1 0.696826 0.277382 0.500000 
771 1 0.707144 0.260398 0.500000 
772 1 0.716794 0.277659 0.500000 
773 1 0.727106 0.260672 0.500000 
774 1 0.736771 0.277906 0.500000 
775 1 0.747075 0.260919 0.500000 
776 1 0.756755 0.278125 0.500000 
777 1 0.767052 0.261138 0.500000 
778 1 0.776748 0.278321 0.500000 
779 1 0.787037 0.261336 0.500000 
780 1 0.796748 0.278496 0.500000 
781 1 0.807030 0.261514 0.500000 
782 1 0.816757 0.278653 0.500000 
783 1 0.827031 0.261675 0.500000 
784 1 0.836771 0.278793 0.500000 
785 1 0.847037 0.261819 0.500000 
786 1 0.856794 0.278921 0.500000 
787 1 0.867052 0.261952 0.500000 
788 1 0.876822 0.279037 0.500000 
789 1 0.887072 0.262074 0.500000 
790 1 0.896856 0.279145 0.500000 
791 1 0.907097 0.262186 0.500000 
792 1 0.916894 0.279244 0.500000 
793 1 0.927126 0.262290 0.500000 
794 1 0.936936 0.279336 0.500000 
795 1 0.947159 0.262387 0.500000 
796 1 0.956982 0.279417 0.500000 
797 1 0.967200 0.262468 0.500000 
798 1 0.977036 0.279488 0.500000 
799 1 0.987245 0.262544 0.500000 
800 1 0.997089 0.279555 0.500000 
801 1 0.006256 0.268068 0.500000 
802 1 0.015779 0.285121 0.500000 
803 1 0.026272 0.268696 0.500000 
804 1 0.035792 0.285753 0.500000 
805 1 0.046292 0.269335 0.500000 
806 1 0.055810 0.286400 0.500000 
807 1 0.066319 0.269991 0.500000 
808 1 0.075835 0.287068 0.500000 
809 1 0.086352 0.270673 0.500000 
810 1 0.095866 0.287757 0.500000 
811 1 0.106391 0.271370 0.500000 
812 1 0.115905 0.288460 0.500000 
813 1 0.126436 0.272082 0.500000 
814 1 0.135949 0.289180 0.500000 
815 1 0.146488 0.272810 0.500000 
816 1 0.156000 0.289917 0.500000 
817 1 0.166544 0.273555 0.500000 
818 1 0.176057 0.290673 0.500000 
819 1 0.186608 0.274319 0.500000 
820 1 0.196122 0.291450 0.500000 
821 1 0.206678 0.275105 0.500000 
822 1 0.216193 0.292251 0.500000 
823 1 0.226752 0.275914 0.500000 
824 1 0.236271 0.293078 0.500000 
825 1 0.246831 0.276746 0.500000 
826 1 0.256354 0.293930 0.500000 
827 1 0.266912 0.277604 0.500000 
828 1 0.276440 0.294811 0.500000 
829 1 0.286993 0.278486 0.500000 
830 1 0.296526 0.295718 0.500000 
831 1 0.307071 0.279390 0.500000 
832 1 0.316608 0.296650 0.500000 
833 1 0.327141 0.280316 0.500000 
834 1 0.336683 0.297607 0.500000 
835 1 0.347201 0.281260 0.500000 
836 1 0.356746 0.298583 0.500000 
837 1 0.367249 0.282217 0.500000 
838 1 0.376796 0.299574 0.500000 
839 1 0.387283 0.283188 0.500000 
840 1 0.396834 0.300581 0.500000 
841 1 0.407305 0.284168 0.500000 
842 1 0.416858 0.301600 0.500000 
843 1 0.427312 0.285157 0.500000 
844 1 0.436867 0.302630 0.500000 
845 1 0.447303 0.286150 0.500000 
846 1 0.456856 0.303664 0.500000 
847 1 0.467277 0.287140 0.500000 
848 1 0.476825 0.304694 0.500000 
849 1 0.487232 0.288117 0.500000 
850 1 0.496773 0.305703 0.500000 
851 1 0.507168 0.289068 0.500000 
852 1 0.516703 0.306673 0.500000 
853 1 0.527090 0.289973 0.500000 
854 1 0.536620 0.307579 0.500000 
855 1 0.546999 0.290813 0.500000 
856 1 0.556531 0.308400 0.500000 
857 1 0.566902 0.291570 0.500000 
858 1 0.576440 0.309120 0.500000 
859 1 0.586805 0.292231 0.500000 
860 1 0.596353 0.309734 0.500000 
861 1 0.606715 0.292798 0.500000 
862 1 0.616277 0.310249 0.500000 
863 1 0.626638 0.293282 0.500000 
864 1 0.636218 0.310684 0.500000 
865 1 0.646576 0.293697 0.500000 
866 1 0.656176 0.311055 0.500000 
867 1 0.666529 0.294058 0.500000 
868 1 0.676149 0.311376 0.500000 
869 1 0.686495 0.294374 0.500000 
870 1 0.696135 0.311656 0.500000 
871 1 0.706472 0.294653 0.500000 
872 1 0.716130 0.311902 0.500000 
873 1 0.726456 0.294899 0.500000 
874 1 0.736133 0.312120 0.500000 
875 1 0.746449 0.295118 0.500000 
876 1 0.756144 0.312309 0.500000 
877 1 0.766450 0.295312 0.500000 
878 1 0.776163 0.312478 0.500000 
879 1 0.786459 0.295484 0.500000 
880 1 0.796190 0.312626 0.500000 
881 1 0.806476 0.295637 0.500000 