ITEM: TIMESTEP
2800
ITEM: NUMBER OF ATOMS
2850
ITEM: BOX BOUNDS ss ss pp
-28.0536 28.3253 
-28.9988 28.9984 
-0.5 0.5 
ITEM: ATOMS id type xs ys zs
1 1 0.012661 0.000000 0.500000 
2 1 0.022340 0.017073 0.500000 
3 1 0.032688 0.000597 0.500000 
4 1 0.042369 0.017677 0.500000 
5 1 0.052715 0.001202 0.500000 
6 1 0.062397 0.018289 0.500000 
7 1 0.072742 0.001814 0.500000 
8 1 0.082426 0.018911 0.500000 
9 1 0.092767 0.002433 0.500000 
10 1 0.102455 0.019539 0.500000 
11 1 0.112794 0.003060 0.500000 
12 1 0.122484 0.020177 0.500000 
13 1 0.132817 0.003697 0.500000 
14 1 0.142511 0.020822 0.500000 
15 1 0.152841 0.004338 0.500000 
16 1 0.162536 0.021475 0.500000 
17 1 0.172861 0.004988 0.500000 
18 1 0.182559 0.022136 0.500000 
19 1 0.192879 0.005643 0.500000 
20 1 0.202579 0.022803 0.500000 
21 1 0.212895 0.006305 0.500000 
22 1 0.222596 0.023475 0.500000 
23 1 0.232906 0.006973 0.500000 
24 1 0.242610 0.024155 0.500000 
25 1 0.252912 0.007645 0.500000 
26 1 0.262618 0.024839 0.500000 
27 1 0.272914 0.008319 0.500000 
28 1 0.282622 0.025527 0.500000 
29 1 0.292911 0.008997 0.500000 
30 1 0.302619 0.026217 0.500000 
31 1 0.312901 0.009676 0.500000 
32 1 0.322610 0.026908 0.500000 
33 1 0.332885 0.010356 0.500000 
34 1 0.342593 0.027600 0.500000 
35 1 0.352861 0.011033 0.500000 
36 1 0.362570 0.028289 0.500000 
37 1 0.372830 0.011707 0.500000 
38 1 0.382537 0.028974 0.500000 
39 1 0.392791 0.012376 0.500000 
40 1 0.402497 0.029655 0.500000 
41 1 0.412744 0.013039 0.500000 
42 1 0.422448 0.030326 0.500000 
43 1 0.432688 0.013694 0.500000 
44 1 0.442390 0.030989 0.500000 
45 1 0.452624 0.014337 0.500000 
46 1 0.462324 0.031639 0.500000 
47 1 0.472553 0.014968 0.500000 
48 1 0.482250 0.032276 0.500000 
49 1 0.492474 0.015584 0.500000 
50 1 0.502167 0.032896 0.500000 
51 1 0.512388 0.016184 0.500000 
52 1 0.522078 0.033498 0.500000 
53 1 0.532295 0.016766 0.500000 
54 1 0.541983 0.034081 0.500000 
55 1 0.552198 0.017330 0.500000 
56 1 0.561882 0.034643 0.500000 
57 1 0.572095 0.017873 0.500000 
58 1 0.581777 0.035184 0.500000 
59 1 0.591989 0.018396 0.500000 
60 1 0.601668 0.035702 0.500000 
61 1 0.611880 0.018896 0.500000 
62 1 0.621558 0.036195 0.500000 
63 1 0.631769 0.019373 0.500000 
64 1 0.641446 0.036666 0.500000 
65 1 0.651657 0.019829 0.500000 
66 1 0.661334 0.037110 0.500000 
67 1 0.671546 0.020261 0.500000 
68 1 0.681223 0.037533 0.500000 
69 1 0.691436 0.020670 0.500000 
70 1 0.701115 0.037931 0.500000 
71 1 0.711328 0.021058 0.500000 
72 1 0.721007 0.038307 0.500000 
73 1 0.731222 0.021423 0.500000 
74 1 0.740905 0.038660 0.500000 
75 1 0.751120 0.021768 0.500000 
76 1 0.760806 0.038993 0.500000 
77 1 0.771021 0.022094 0.500000 
78 1 0.780711 0.039305 0.500000 
79 1 0.790927 0.022399 0.500000 
80 1 0.800620 0.039597 0.500000 
81 1 0.810837 0.022687 0.500000 
82 1 0.820536 0.039873 0.500000 
83 1 0.830751 0.022958 0.500000 
84 1 0.840456 0.040130 0.500000 
85 1 0.850671 0.023211 0.500000 
86 1 0.860382 0.040369 0.500000 
87 1 0.870595 0.023449 0.500000 
88 1 0.880312 0.040595 0.500000 
89 1 0.890525 0.023674 0.500000 
90 1 0.900248 0.040807 0.500000 
91 1 0.910459 0.023884 0.500000 
92 1 0.920188 0.041005 0.500000 
93 1 0.930398 0.024080 0.500000 
94 1 0.940134 0.041192 0.500000 
95 1 0.950341 0.024267 0.500000 
96 1 0.960084 0.041368 0.500000 
97 1 0.970290 0.024443 0.500000 
98 1 0.980040 0.041531 0.500000 
99 1 0.990243 0.024606 0.500000 
100 1 1.000000 0.041686 0.500000 
101 1 0.011983 0.033545 0.500000 
102 1 0.021650 0.050615 0.500000 
103 1 0.032014 0.034148 0.500000 
104 1 0.041680 0.051227 0.500000 
105 1 0.052044 0.034760 0.500000 
106 1 0.061715 0.051847 0.500000 
107 1 0.072075 0.035381 0.500000 
108 1 0.081746 0.052479 0.500000 
109 1 0.092107 0.036012 0.500000 
110 1 0.101787 0.053122 0.500000 
111 1 0.112138 0.036650 0.500000 
112 1 0.121821 0.053778 0.500000 
113 1 0.132168 0.037297 0.500000 
114 1 0.141857 0.054440 0.500000 
115 1 0.152197 0.037952 0.500000 
116 1 0.161890 0.055112 0.500000 
117 1 0.172226 0.038617 0.500000 
118 1 0.181917 0.055792 0.500000 
119 1 0.192251 0.039288 0.500000 
120 1 0.201944 0.056470 0.500000 
121 1 0.212274 0.039967 0.500000 
122 1 0.221960 0.057171 0.500000 
123 1 0.232293 0.040654 0.500000 
124 1 0.241968 0.057866 0.500000 
125 1 0.252309 0.041345 0.500000 
126 1 0.261979 0.058569 0.500000 
127 1 0.272318 0.042042 0.500000 
128 1 0.281991 0.059284 0.500000 
129 1 0.292324 0.042743 0.500000 
130 1 0.301991 0.059997 0.500000 
131 1 0.312323 0.043447 0.500000 
132 1 0.321983 0.060707 0.500000 
133 1 0.332314 0.044150 0.500000 
134 1 0.341964 0.061426 0.500000 
135 1 0.352297 0.044856 0.500000 
136 1 0.361933 0.062144 0.500000 
137 1 0.372273 0.045557 0.500000 
138 1 0.381902 0.062858 0.500000 
139 1 0.392240 0.046254 0.500000 
140 1 0.401874 0.063567 0.500000 
141 1 0.412198 0.046944 0.500000 
142 1 0.421830 0.064261 0.500000 
143 1 0.432147 0.047626 0.500000 
144 1 0.441773 0.064942 0.500000 
145 1 0.452087 0.048297 0.500000 
146 1 0.461709 0.065622 0.500000 
147 1 0.472018 0.048954 0.500000 
148 1 0.481641 0.066283 0.500000 
149 1 0.491940 0.049595 0.500000 
150 1 0.501561 0.066924 0.500000 
151 1 0.511855 0.050220 0.500000 
152 1 0.521467 0.067547 0.500000 
153 1 0.531762 0.050823 0.500000 
154 1 0.541374 0.068147 0.500000 
155 1 0.551663 0.051406 0.500000 
156 1 0.561280 0.068715 0.500000 
157 1 0.571560 0.051966 0.500000 
158 1 0.581175 0.069264 0.500000 
159 1 0.591452 0.052503 0.500000 
160 1 0.601068 0.069790 0.500000 
161 1 0.611341 0.053013 0.500000 
162 1 0.620958 0.070300 0.500000 
163 1 0.631230 0.053499 0.500000 
164 1 0.640853 0.070770 0.500000 
165 1 0.651117 0.053960 0.500000 
166 1 0.660743 0.071221 0.500000 
167 1 0.671006 0.054396 0.500000 
168 1 0.680649 0.071626 0.500000 
169 1 0.690897 0.054806 0.500000 
170 1 0.700554 0.072031 0.500000 
171 1 0.710789 0.055192 0.500000 
172 1 0.720451 0.072409 0.500000 
173 1 0.730685 0.055554 0.500000 
174 1 0.740356 0.072765 0.500000 
175 1 0.750586 0.055894 0.500000 
176 1 0.760269 0.073085 0.500000 
177 1 0.770490 0.056213 0.500000 
178 1 0.780182 0.073382 0.500000 
179 1 0.790400 0.056511 0.500000 
180 1 0.800103 0.073670 0.500000 
181 1 0.810316 0.056789 0.500000 
182 1 0.820032 0.073937 0.500000 
183 1 0.830238 0.057049 0.500000 
184 1 0.839960 0.074196 0.500000 
185 1 0.850164 0.057294 0.500000 
186 1 0.859891 0.074415 0.500000 
187 1 0.870095 0.057522 0.500000 
188 1 0.879826 0.074642 0.500000 
189 1 0.890032 0.057734 0.500000 
190 1 0.899763 0.074844 0.500000 
191 1 0.909975 0.057934 0.500000 
192 1 0.919714 0.075039 0.500000 
193 1 0.929922 0.058120 0.500000 
194 1 0.939668 0.075217 0.500000 
195 1 0.949875 0.058294 0.500000 
196 1 0.959621 0.075390 0.500000 
197 1 0.969833 0.058458 0.500000 
198 1 0.979588 0.075542 0.500000 
199 1 0.989796 0.058613 0.500000 
200 1 0.999557 0.075685 0.500000 
201 1 0.011275 0.067077 0.500000 
202 1 0.020924 0.084144 0.500000 
203 1 0.031308 0.067688 0.500000 
204 1 0.040959 0.084763 0.500000 
205 1 0.051342 0.068307 0.500000 
206 1 0.060994 0.085390 0.500000 
207 1 0.071376 0.068936 0.500000 
208 1 0.081045 0.086031 0.500000 
209 1 0.091429 0.069581 0.500000 
210 1 0.101085 0.086708 0.500000 
211 1 0.111468 0.070255 0.500000 
212 1 0.121136 0.087382 0.500000 
213 1 0.131503 0.070914 0.500000 
214 1 0.141180 0.088055 0.500000 
215 1 0.151538 0.071593 0.500000 
216 1 0.161226 0.088747 0.500000 
217 1 0.171571 0.072278 0.500000 
218 1 0.181265 0.089448 0.500000 
219 1 0.191601 0.072963 0.500000 
220 1 0.201267 0.090173 0.500000 
221 1 0.211619 0.073673 0.500000 
222 1 0.221271 0.090887 0.500000 
223 1 0.231636 0.074388 0.500000 
224 1 0.241287 0.091609 0.500000 
225 1 0.251643 0.075094 0.500000 
226 1 0.261291 0.092334 0.500000 
227 1 0.271644 0.075810 0.500000 
228 1 0.281304 0.093053 0.500000 
229 1 0.291651 0.076535 0.500000 
230 1 0.301308 0.093804 0.500000 
231 1 0.311643 0.077265 0.500000 
232 1 0.321304 0.094548 0.500000 
233 1 0.331630 0.077989 0.500000 
234 1 0.341282 0.095287 0.500000 
235 1 0.351608 0.078724 0.500000 
236 1 0.361252 0.096034 0.500000 
237 1 0.371574 0.079452 0.500000 
238 1 0.381223 0.096759 0.500000 
239 1 0.391541 0.080165 0.500000 
240 1 0.401175 0.097498 0.500000 
241 1 0.411503 0.080891 0.500000 
242 1 0.421124 0.098219 0.500000 
243 1 0.431451 0.081579 0.500000 
244 1 0.441059 0.098912 0.500000 
245 1 0.451390 0.082270 0.500000 
246 1 0.460990 0.099613 0.500000 
247 1 0.471323 0.082955 0.500000 
248 1 0.480922 0.100290 0.500000 
249 1 0.491254 0.083614 0.500000 
250 1 0.500846 0.100961 0.500000 
251 1 0.511170 0.084261 0.500000 
252 1 0.520768 0.101597 0.500000 
253 1 0.531084 0.084879 0.500000 
254 1 0.540690 0.102214 0.500000 
255 1 0.550994 0.085466 0.500000 
256 1 0.560599 0.102788 0.500000 
257 1 0.570897 0.086030 0.500000 
258 1 0.580500 0.103342 0.500000 
259 1 0.590796 0.086573 0.500000 
260 1 0.600408 0.103880 0.500000 
261 1 0.610691 0.087096 0.500000 
262 1 0.620323 0.104379 0.500000 
263 1 0.630597 0.087573 0.500000 
264 1 0.640231 0.104853 0.500000 
265 1 0.650497 0.088046 0.500000 
266 1 0.660150 0.105297 0.500000 
267 1 0.670400 0.088456 0.500000 
268 1 0.680053 0.105703 0.500000 
269 1 0.690307 0.088866 0.500000 
270 1 0.699970 0.106111 0.500000 
271 1 0.710214 0.089265 0.500000 
272 1 0.719889 0.106485 0.500000 
273 1 0.730126 0.089624 0.500000 
274 1 0.739816 0.106817 0.500000 
275 1 0.750047 0.089955 0.500000 
276 1 0.759737 0.107134 0.500000 
277 1 0.769968 0.090264 0.500000 
278 1 0.779663 0.107439 0.500000 
279 1 0.789892 0.090551 0.500000 
280 1 0.799595 0.107719 0.500000 
281 1 0.809826 0.090823 0.500000 
282 1 0.819532 0.107982 0.500000 
283 1 0.829755 0.091087 0.500000 
284 1 0.839463 0.108227 0.500000 
285 1 0.849693 0.091325 0.500000 
286 1 0.859399 0.108454 0.500000 
287 1 0.869632 0.091543 0.500000 
288 1 0.879344 0.108673 0.500000 
289 1 0.889575 0.091764 0.500000 
290 1 0.899302 0.108872 0.500000 
291 1 0.909515 0.091948 0.500000 
292 1 0.919249 0.109055 0.500000 
293 1 0.929460 0.092140 0.500000 
294 1 0.939201 0.109241 0.500000 
295 1 0.949407 0.092323 0.500000 
296 1 0.959160 0.109410 0.500000 
297 1 0.969375 0.092475 0.500000 
298 1 0.979136 0.109550 0.500000 
299 1 0.989349 0.092617 0.500000 
300 1 0.999117 0.109681 0.500000 
301 1 0.010532 0.100598 0.500000 
302 1 0.020165 0.117663 0.500000 
303 1 0.030566 0.101214 0.500000 
304 1 0.040201 0.118287 0.500000 
305 1 0.050602 0.101839 0.500000 
306 1 0.060239 0.118920 0.500000 
307 1 0.070640 0.102476 0.500000 
308 1 0.080280 0.119590 0.500000 
309 1 0.090683 0.103151 0.500000 
310 1 0.100327 0.120259 0.500000 
311 1 0.110744 0.103825 0.500000 
312 1 0.120388 0.120942 0.500000 
313 1 0.130801 0.104510 0.500000 
314 1 0.140433 0.121661 0.500000 
315 1 0.150831 0.105203 0.500000 
316 1 0.160469 0.122364 0.500000 
317 1 0.170862 0.105906 0.500000 
318 1 0.180496 0.123098 0.500000 
319 1 0.190886 0.106650 0.500000 
320 1 0.200527 0.123847 0.500000 
321 1 0.210915 0.107380 0.500000 
322 1 0.220564 0.124581 0.500000 
323 1 0.230943 0.108103 0.500000 
324 1 0.240579 0.125336 0.500000 
325 1 0.250949 0.108846 0.500000 
326 1 0.260597 0.126063 0.500000 
327 1 0.270963 0.109560 0.500000 
328 1 0.280602 0.126819 0.500000 
329 1 0.290961 0.110321 0.500000 
330 1 0.300591 0.127605 0.500000 
331 1 0.310947 0.111082 0.500000 
332 1 0.320582 0.128368 0.500000 
333 1 0.330937 0.111837 0.500000 
334 1 0.340563 0.129147 0.500000 
335 1 0.350912 0.112596 0.500000 
336 1 0.360537 0.129906 0.500000 
337 1 0.370884 0.113339 0.500000 
338 1 0.380497 0.130672 0.500000 
339 1 0.390840 0.114091 0.500000 
340 1 0.400457 0.131428 0.500000 
341 1 0.410796 0.114833 0.500000 
342 1 0.420406 0.132179 0.500000 
343 1 0.430751 0.115559 0.500000 
344 1 0.440352 0.132909 0.500000 
345 1 0.450687 0.116264 0.500000 
346 1 0.460282 0.133628 0.500000 
347 1 0.470616 0.116967 0.500000 
348 1 0.480213 0.134329 0.500000 
349 1 0.490535 0.117649 0.500000 
350 1 0.500132 0.135018 0.500000 
351 1 0.510451 0.118312 0.500000 
352 1 0.520045 0.135665 0.500000 
353 1 0.530369 0.118943 0.500000 
354 1 0.539970 0.136282 0.500000 
355 1 0.550291 0.119544 0.500000 
356 1 0.559888 0.136880 0.500000 
357 1 0.570196 0.120111 0.500000 
358 1 0.579806 0.137437 0.500000 
359 1 0.590101 0.120654 0.500000 
360 1 0.599724 0.137967 0.500000 
361 1 0.610023 0.121177 0.500000 
362 1 0.619650 0.138476 0.500000 
363 1 0.629946 0.121667 0.500000 
364 1 0.639581 0.138943 0.500000 
365 1 0.649863 0.122114 0.500000 
366 1 0.659502 0.139390 0.500000 
367 1 0.669780 0.122555 0.500000 
368 1 0.679429 0.139792 0.500000 
369 1 0.689711 0.122942 0.500000 
370 1 0.699355 0.140183 0.500000 
371 1 0.709646 0.123344 0.500000 
372 1 0.719306 0.140540 0.500000 
373 1 0.729579 0.123680 0.500000 
374 1 0.739249 0.140878 0.500000 
375 1 0.749504 0.124008 0.500000 
376 1 0.759193 0.141195 0.500000 
377 1 0.769435 0.124315 0.500000 
378 1 0.779133 0.141501 0.500000 
379 1 0.789374 0.124614 0.500000 
380 1 0.799079 0.141781 0.500000 
381 1 0.809314 0.124883 0.500000 
382 1 0.819028 0.142037 0.500000 
383 1 0.829250 0.125135 0.500000 
384 1 0.838972 0.142274 0.500000 
385 1 0.849188 0.125367 0.500000 
386 1 0.858920 0.142500 0.500000 
387 1 0.869132 0.125587 0.500000 
388 1 0.878877 0.142702 0.500000 
389 1 0.889086 0.125787 0.500000 
390 1 0.898833 0.142905 0.500000 
391 1 0.909034 0.125975 0.500000 
392 1 0.918787 0.143073 0.500000 
393 1 0.928988 0.126155 0.500000 
394 1 0.938741 0.143261 0.500000 
395 1 0.948940 0.126349 0.500000 
396 1 0.958701 0.143428 0.500000 
397 1 0.968919 0.126487 0.500000 
398 1 0.978689 0.143555 0.500000 
399 1 0.988905 0.126616 0.500000 
400 1 0.998682 0.143674 0.500000 
401 1 0.009754 0.134110 0.500000 
402 1 0.019367 0.151171 0.500000 
403 1 0.029790 0.134729 0.500000 
404 1 0.039403 0.151799 0.500000 
405 1 0.049825 0.135360 0.500000 
406 1 0.059442 0.152437 0.500000 
407 1 0.069865 0.136003 0.500000 
408 1 0.079492 0.153108 0.500000 
409 1 0.089914 0.136694 0.500000 
410 1 0.099537 0.153804 0.500000 
411 1 0.109961 0.137370 0.500000 
412 1 0.119573 0.154516 0.500000 
413 1 0.130000 0.138093 0.500000 
414 1 0.139621 0.155233 0.500000 
415 1 0.150049 0.138808 0.500000 
416 1 0.159665 0.155966 0.500000 
417 1 0.170090 0.139540 0.500000 
418 1 0.179704 0.156722 0.500000 
419 1 0.190122 0.140292 0.500000 
420 1 0.199739 0.157482 0.500000 
421 1 0.210158 0.141045 0.500000 
422 1 0.219771 0.158262 0.500000 
423 1 0.230180 0.141807 0.500000 
424 1 0.239809 0.159023 0.500000 
425 1 0.250204 0.142551 0.500000 
426 1 0.259826 0.159801 0.500000 
427 1 0.270218 0.143312 0.500000 
428 1 0.279831 0.160587 0.500000 
429 1 0.290218 0.144105 0.500000 
430 1 0.299839 0.161392 0.500000 
431 1 0.310216 0.144887 0.500000 
432 1 0.319832 0.162197 0.500000 
433 1 0.330208 0.145679 0.500000 
434 1 0.339831 0.162992 0.500000 
435 1 0.350195 0.146463 0.500000 
436 1 0.359822 0.163794 0.500000 
437 1 0.370163 0.147245 0.500000 
438 1 0.379791 0.164588 0.500000 
439 1 0.390121 0.148010 0.500000 
440 1 0.399751 0.165371 0.500000 
441 1 0.410079 0.148789 0.500000 
442 1 0.419709 0.166165 0.500000 
443 1 0.430025 0.149542 0.500000 
444 1 0.439646 0.166932 0.500000 
445 1 0.449958 0.150286 0.500000 
446 1 0.459581 0.167669 0.500000 
447 1 0.469893 0.151000 0.500000 
448 1 0.479507 0.168400 0.500000 
449 1 0.489816 0.151707 0.500000 
450 1 0.499427 0.169089 0.500000 
451 1 0.509743 0.152392 0.500000 
452 1 0.519359 0.169758 0.500000 
453 1 0.529662 0.153023 0.500000 
454 1 0.539281 0.170386 0.500000 
455 1 0.549580 0.153633 0.500000 
456 1 0.559201 0.170990 0.500000 
457 1 0.569502 0.154213 0.500000 
458 1 0.579122 0.171553 0.500000 
459 1 0.589428 0.154756 0.500000 
460 1 0.599040 0.172076 0.500000 
461 1 0.609353 0.155281 0.500000 
462 1 0.618974 0.172576 0.500000 
463 1 0.629279 0.155761 0.500000 
464 1 0.638906 0.173039 0.500000 
465 1 0.649210 0.156215 0.500000 
466 1 0.658844 0.173476 0.500000 
467 1 0.669144 0.156638 0.500000 
468 1 0.678781 0.173888 0.500000 
469 1 0.689072 0.157033 0.500000 
470 1 0.698733 0.174256 0.500000 
471 1 0.709017 0.157395 0.500000 
472 1 0.718698 0.174608 0.500000 
473 1 0.728968 0.157744 0.500000 
474 1 0.738659 0.174941 0.500000 
475 1 0.748925 0.158067 0.500000 
476 1 0.758618 0.175252 0.500000 
477 1 0.768880 0.158380 0.500000 
478 1 0.778579 0.175554 0.500000 
479 1 0.788828 0.158674 0.500000 
480 1 0.798539 0.175832 0.500000 
481 1 0.808782 0.158937 0.500000 
482 1 0.818506 0.176077 0.500000 
483 1 0.828735 0.159177 0.500000 
484 1 0.838468 0.176306 0.500000 
485 1 0.848685 0.159403 0.500000 
486 1 0.858432 0.176524 0.500000 
487 1 0.868642 0.159619 0.500000 
488 1 0.878386 0.176741 0.500000 
489 1 0.888599 0.159820 0.500000 
490 1 0.898346 0.176928 0.500000 
491 1 0.908565 0.160014 0.500000 
492 1 0.918318 0.177120 0.500000 
493 1 0.928520 0.160186 0.500000 
494 1 0.938282 0.177292 0.500000 
495 1 0.948477 0.160370 0.500000 
496 1 0.958249 0.177440 0.500000 
497 1 0.968470 0.160496 0.500000 
498 1 0.978251 0.177553 0.500000 
499 1 0.988467 0.160611 0.500000 
500 1 0.998258 0.177659 0.500000 
501 1 0.008938 0.167610 0.500000 
502 1 0.018532 0.184668 0.500000 
503 1 0.028972 0.168234 0.500000 
504 1 0.038566 0.185299 0.500000 
505 1 0.049008 0.168868 0.500000 
506 1 0.058602 0.185942 0.500000 
507 1 0.069047 0.169517 0.500000 
508 1 0.078647 0.186626 0.500000 
509 1 0.089086 0.170220 0.500000 
510 1 0.098701 0.187336 0.500000 
511 1 0.109136 0.170929 0.500000 
512 1 0.118754 0.188057 0.500000 
513 1 0.129195 0.171650 0.500000 
514 1 0.138796 0.188806 0.500000 
515 1 0.149241 0.172389 0.500000 
516 1 0.158836 0.189565 0.500000 
517 1 0.169279 0.173140 0.500000 
518 1 0.178874 0.190329 0.500000 
519 1 0.189322 0.173910 0.500000 
520 1 0.198913 0.191136 0.500000 
521 1 0.209348 0.174709 0.500000 
522 1 0.218972 0.191922 0.500000 
523 1 0.229384 0.175476 0.500000 
524 1 0.239008 0.192717 0.500000 
525 1 0.249411 0.176265 0.500000 
526 1 0.259022 0.193531 0.500000 
527 1 0.269430 0.177069 0.500000 
528 1 0.279044 0.194339 0.500000 
529 1 0.289446 0.177869 0.500000 
530 1 0.299056 0.195175 0.500000 
531 1 0.309457 0.178701 0.500000 
532 1 0.319078 0.196001 0.500000 
533 1 0.329469 0.179506 0.500000 
534 1 0.339081 0.196834 0.500000 
535 1 0.349464 0.180321 0.500000 
536 1 0.359069 0.197674 0.500000 
537 1 0.369443 0.181141 0.500000 
538 1 0.379049 0.198511 0.500000 
539 1 0.389407 0.181946 0.500000 
540 1 0.399010 0.199344 0.500000 
541 1 0.409360 0.182758 0.500000 
542 1 0.418969 0.200151 0.500000 
543 1 0.429316 0.183557 0.500000 
544 1 0.438926 0.200955 0.500000 
545 1 0.449256 0.184318 0.500000 
546 1 0.458862 0.201727 0.500000 
547 1 0.469189 0.185072 0.500000 
548 1 0.478792 0.202489 0.500000 
549 1 0.489118 0.185801 0.500000 
550 1 0.498728 0.203200 0.500000 
551 1 0.509041 0.186472 0.500000 
552 1 0.518652 0.203886 0.500000 
553 1 0.528964 0.187139 0.500000 
554 1 0.538577 0.204528 0.500000 
555 1 0.548888 0.187755 0.500000 
556 1 0.558497 0.205127 0.500000 
557 1 0.568815 0.188345 0.500000 
558 1 0.578424 0.205700 0.500000 
559 1 0.588739 0.188896 0.500000 
560 1 0.598360 0.206224 0.500000 
561 1 0.608668 0.189390 0.500000 
562 1 0.618299 0.206717 0.500000 
563 1 0.628601 0.189874 0.500000 
564 1 0.638251 0.207162 0.500000 
565 1 0.648552 0.190316 0.500000 
566 1 0.658202 0.207591 0.500000 
567 1 0.668499 0.190739 0.500000 
568 1 0.678154 0.207981 0.500000 
569 1 0.688458 0.191122 0.500000 
570 1 0.698117 0.208350 0.500000 
571 1 0.708421 0.191472 0.500000 
572 1 0.718091 0.208681 0.500000 
573 1 0.728385 0.191807 0.500000 
574 1 0.738053 0.209010 0.500000 
575 1 0.748346 0.192133 0.500000 
576 1 0.758024 0.209315 0.500000 
577 1 0.768315 0.192432 0.500000 
578 1 0.778002 0.209608 0.500000 
579 1 0.788286 0.192723 0.500000 
580 1 0.797987 0.209878 0.500000 
581 1 0.808257 0.192974 0.500000 
582 1 0.817959 0.210127 0.500000 
583 1 0.828226 0.193212 0.500000 
584 1 0.837931 0.210352 0.500000 
585 1 0.848203 0.193433 0.500000 
586 1 0.857907 0.210573 0.500000 
587 1 0.868166 0.193661 0.500000 
588 1 0.877886 0.210774 0.500000 
589 1 0.888126 0.193845 0.500000 
590 1 0.897856 0.210944 0.500000 
591 1 0.908094 0.194029 0.500000 
592 1 0.917835 0.211129 0.500000 
593 1 0.928067 0.194219 0.500000 
594 1 0.937822 0.211310 0.500000 
595 1 0.948021 0.194385 0.500000 
596 1 0.957807 0.211443 0.500000 
597 1 0.968031 0.194496 0.500000 
598 1 0.977825 0.211543 0.500000 
599 1 0.988043 0.194599 0.500000 
600 1 0.997847 0.211634 0.500000 
601 1 0.008083 0.201103 0.500000 
602 1 0.017654 0.218157 0.500000 
603 1 0.028113 0.201727 0.500000 
604 1 0.037684 0.218790 0.500000 
605 1 0.048147 0.202367 0.500000 
606 1 0.057718 0.219436 0.500000 
607 1 0.068185 0.203017 0.500000 
608 1 0.077772 0.220127 0.500000 
609 1 0.088241 0.203734 0.500000 
610 1 0.097824 0.220859 0.500000 
611 1 0.108289 0.204463 0.500000 
612 1 0.117867 0.221608 0.500000 
613 1 0.128333 0.205207 0.500000 
614 1 0.137911 0.222357 0.500000 
615 1 0.148391 0.205970 0.500000 
616 1 0.157961 0.223132 0.500000 
617 1 0.168445 0.206752 0.500000 
618 1 0.178013 0.223943 0.500000 
619 1 0.188476 0.207549 0.500000 
620 1 0.198071 0.224740 0.500000 
621 1 0.208527 0.208336 0.500000 
622 1 0.218120 0.225557 0.500000 
623 1 0.228578 0.209152 0.500000 
624 1 0.238176 0.226397 0.500000 
625 1 0.248611 0.209979 0.500000 
626 1 0.258227 0.227233 0.500000 
627 1 0.268639 0.210794 0.500000 
628 1 0.278258 0.228090 0.500000 
629 1 0.288653 0.211635 0.500000 
630 1 0.298286 0.228945 0.500000 
631 1 0.308679 0.212482 0.500000 
632 1 0.318312 0.229821 0.500000 
633 1 0.328694 0.213333 0.500000 
634 1 0.338318 0.230698 0.500000 
635 1 0.348692 0.214196 0.500000 
636 1 0.358314 0.231577 0.500000 
637 1 0.368678 0.215052 0.500000 
638 1 0.378289 0.232461 0.500000 
639 1 0.388651 0.215916 0.500000 
640 1 0.398263 0.233323 0.500000 
641 1 0.408617 0.216749 0.500000 
642 1 0.418230 0.234177 0.500000 
643 1 0.428570 0.217561 0.500000 
644 1 0.438184 0.235013 0.500000 
645 1 0.448520 0.218374 0.500000 
646 1 0.458128 0.235833 0.500000 
647 1 0.468450 0.219165 0.500000 
648 1 0.478068 0.236612 0.500000 
649 1 0.488386 0.219915 0.500000 
650 1 0.498007 0.237355 0.500000 
651 1 0.508322 0.220618 0.500000 
652 1 0.517938 0.238036 0.500000 
653 1 0.528258 0.221284 0.500000 
654 1 0.537868 0.238686 0.500000 
655 1 0.548186 0.221916 0.500000 
656 1 0.557807 0.239285 0.500000 
657 1 0.568119 0.222493 0.500000 
658 1 0.577745 0.239850 0.500000 
659 1 0.588052 0.223038 0.500000 
660 1 0.597689 0.240382 0.500000 
661 1 0.607990 0.223551 0.500000 
662 1 0.617643 0.240871 0.500000 
663 1 0.627946 0.224023 0.500000 
664 1 0.637613 0.241312 0.500000 
665 1 0.647902 0.224449 0.500000 
666 1 0.657579 0.241713 0.500000 
667 1 0.667862 0.224848 0.500000 
668 1 0.677544 0.242101 0.500000 
669 1 0.687820 0.225224 0.500000 
670 1 0.697519 0.242453 0.500000 
671 1 0.707794 0.225565 0.500000 
672 1 0.717492 0.242787 0.500000 
673 1 0.727769 0.225898 0.500000 
674 1 0.737467 0.243103 0.500000 
675 1 0.747745 0.226202 0.500000 
676 1 0.757442 0.243398 0.500000 
677 1 0.767723 0.226502 0.500000 
678 1 0.777431 0.243675 0.500000 
679 1 0.787705 0.226770 0.500000 
680 1 0.797423 0.243920 0.500000 
681 1 0.807691 0.227029 0.500000 
682 1 0.817420 0.244169 0.500000 
683 1 0.827679 0.227268 0.500000 
684 1 0.837415 0.244404 0.500000 
685 1 0.847666 0.227490 0.500000 
686 1 0.857406 0.244611 0.500000 
687 1 0.867653 0.227692 0.500000 
688 1 0.877399 0.244802 0.500000 
689 1 0.887638 0.227880 0.500000 
690 1 0.897396 0.244981 0.500000 
691 1 0.907616 0.228047 0.500000 
692 1 0.917389 0.245143 0.500000 
693 1 0.927598 0.228219 0.500000 
694 1 0.937381 0.245311 0.500000 
695 1 0.947580 0.228392 0.500000 
696 1 0.957383 0.245436 0.500000 
697 1 0.967605 0.228489 0.500000 
698 1 0.977417 0.245522 0.500000 
699 1 0.987634 0.228577 0.500000 
700 1 0.997455 0.245600 0.500000 
701 1 0.007189 0.234587 0.500000 
702 1 0.016737 0.251640 0.500000 
703 1 0.027214 0.235215 0.500000 
704 1 0.036760 0.252274 0.500000 
705 1 0.047243 0.235854 0.500000 
706 1 0.056787 0.252921 0.500000 
707 1 0.067275 0.236508 0.500000 
708 1 0.076843 0.253627 0.500000 
709 1 0.087340 0.237247 0.500000 
710 1 0.096890 0.254385 0.500000 
711 1 0.107394 0.237999 0.500000 
712 1 0.116942 0.255134 0.500000 
713 1 0.127448 0.238757 0.500000 
714 1 0.136998 0.255916 0.500000 
715 1 0.147481 0.239517 0.500000 
716 1 0.157044 0.256691 0.500000 
717 1 0.167518 0.240307 0.500000 
718 1 0.177103 0.257476 0.500000 
719 1 0.187585 0.241115 0.500000 
720 1 0.197166 0.258316 0.500000 
721 1 0.207647 0.241948 0.500000 
722 1 0.217230 0.259166 0.500000 
723 1 0.227712 0.242786 0.500000 
724 1 0.237304 0.260021 0.500000 
725 1 0.247782 0.243641 0.500000 
726 1 0.257364 0.260918 0.500000 
727 1 0.267823 0.244516 0.500000 
728 1 0.277418 0.261800 0.500000 
729 1 0.287870 0.245392 0.500000 
730 1 0.297465 0.262709 0.500000 
731 1 0.307899 0.246277 0.500000 
732 1 0.317501 0.263628 0.500000 
733 1 0.327916 0.247174 0.500000 
734 1 0.337529 0.264535 0.500000 
735 1 0.347932 0.248072 0.500000 
736 1 0.357539 0.265480 0.500000 
737 1 0.367924 0.248982 0.500000 
738 1 0.377526 0.266401 0.500000 
739 1 0.387904 0.249877 0.500000 
740 1 0.397501 0.267331 0.500000 
741 1 0.407871 0.250766 0.500000 
742 1 0.417466 0.268237 0.500000 
743 1 0.427835 0.251640 0.500000 
744 1 0.437429 0.269115 0.500000 
745 1 0.447793 0.252487 0.500000 
746 1 0.457378 0.269976 0.500000 
747 1 0.467733 0.253299 0.500000 
748 1 0.477308 0.270789 0.500000 
749 1 0.487662 0.254074 0.500000 
750 1 0.497247 0.271542 0.500000 
751 1 0.507599 0.254794 0.500000 
752 1 0.517193 0.272233 0.500000 
753 1 0.527536 0.255458 0.500000 
754 1 0.537131 0.272890 0.500000 
755 1 0.547472 0.256086 0.500000 
756 1 0.557080 0.273500 0.500000 
757 1 0.567410 0.256674 0.500000 
758 1 0.577029 0.274058 0.500000 
759 1 0.587357 0.257211 0.500000 
760 1 0.596981 0.274568 0.500000 
761 1 0.607320 0.257720 0.500000 
762 1 0.616950 0.275039 0.500000 
763 1 0.627291 0.258167 0.500000 
764 1 0.636922 0.275466 0.500000 
765 1 0.647260 0.258589 0.500000 
766 1 0.656898 0.275872 0.500000 
767 1 0.667226 0.258983 0.500000 
768 1 0.676881 0.276239 0.500000 
769 1 0.687199 0.259343 0.500000 
770 1 0.696871 0.276578 0.500000 
771 1 0.707174 0.259678 0.500000 
772 1 0.716867 0.276893 0.500000 
773 1 0.727161 0.259997 0.500000 
774 1 0.736861 0.277191 0.500000 
775 1 0.747150 0.260296 0.500000 
776 1 0.756860 0.277480 0.500000 
777 1 0.767137 0.260575 0.500000 
778 1 0.776869 0.277733 0.500000 
779 1 0.787138 0.260829 0.500000 
780 1 0.796875 0.277989 0.500000 
781 1 0.807136 0.261074 0.500000 
782 1 0.816876 0.278225 0.500000 
783 1 0.827141 0.261311 0.500000 
784 1 0.836885 0.278439 0.500000 
785 1 0.847149 0.261528 0.500000 
786 1 0.856905 0.278647 0.500000 
787 1 0.867151 0.261726 0.500000 
788 1 0.876923 0.278830 0.500000 
789 1 0.887154 0.261903 0.500000 
790 1 0.896929 0.279005 0.500000 
791 1 0.907163 0.262076 0.500000 
792 1 0.916937 0.279165 0.500000 
793 1 0.927162 0.262237 0.500000 
794 1 0.936953 0.279313 0.500000 
795 1 0.947159 0.262387 0.500000 
796 1 0.956982 0.279417 0.500000 
797 1 0.967200 0.262468 0.500000 
798 1 0.977036 0.279488 0.500000 
799 1 0.987245 0.262544 0.500000 
800 1 0.997089 0.279555 0.500000 
801 1 0.006256 0.268068 0.500000 
802 1 0.015779 0.285121 0.500000 
803 1 0.026272 0.268696 0.500000 
804 1 0.035792 0.285753 0.500000 
805 1 0.046292 0.269335 0.500000 
806 1 0.055810 0.286400 0.500000 
807 1 0.066319 0.269991 0.500000 
808 1 0.075848 0.287098 0.500000 
809 1 0.086373 0.270749 0.500000 
810 1 0.095905 0.287867 0.500000 
811 1 0.106434 0.271512 0.500000 
812 1 0.115971 0.288642 0.500000 
813 1 0.126484 0.272278 0.500000 
814 1 0.136034 0.289412 0.500000 
815 1 0.146549 0.273066 0.500000 
816 1 0.156108 0.290214 0.500000 
817 1 0.166613 0.273852 0.500000 
818 1 0.176167 0.291035 0.500000 
819 1 0.186672 0.274670 0.500000 
820 1 0.196233 0.291878 0.500000 
821 1 0.206738 0.275528 0.500000 
822 1 0.216311 0.292744 0.500000 
823 1 0.226814 0.276395 0.500000 
824 1 0.236379 0.293641 0.500000 
825 1 0.246882 0.277287 0.500000 
826 1 0.256457 0.294540 0.500000 
827 1 0.266960 0.278188 0.500000 
828 1 0.276528 0.295479 0.500000 
829 1 0.287015 0.279106 0.500000 
830 1 0.296585 0.296434 0.500000 
831 1 0.307059 0.280046 0.500000 
832 1 0.316640 0.297396 0.500000 
833 1 0.327103 0.280985 0.500000 
834 1 0.336670 0.298380 0.500000 
835 1 0.347121 0.281941 0.500000 
836 1 0.356692 0.299366 0.500000 
837 1 0.367126 0.282909 0.500000 
838 1 0.376697 0.300372 0.500000 
839 1 0.387109 0.283862 0.500000 
840 1 0.396686 0.301345 0.500000 
841 1 0.407095 0.284808 0.500000 
842 1 0.416663 0.302313 0.500000 
843 1 0.427063 0.285723 0.500000 
844 1 0.436621 0.303260 0.500000 
845 1 0.447014 0.286630 0.500000 
846 1 0.456568 0.304172 0.500000 
847 1 0.466952 0.287494 0.500000 
848 1 0.476511 0.305010 0.500000 
849 1 0.486893 0.288284 0.500000 
850 1 0.496449 0.305777 0.500000 
851 1 0.506838 0.289012 0.500000 
852 1 0.516396 0.306489 0.500000 
853 1 0.526773 0.289695 0.500000 
854 1 0.536351 0.307134 0.500000 
855 1 0.546720 0.290311 0.500000 
856 1 0.556306 0.307730 0.500000 
857 1 0.566672 0.290895 0.500000 
858 1 0.576271 0.308278 0.500000 
859 1 0.586631 0.291418 0.500000 
860 1 0.596247 0.308768 0.500000 
861 1 0.606609 0.291909 0.500000 
862 1 0.616241 0.309226 0.500000 
863 1 0.626590 0.292354 0.500000 
864 1 0.636228 0.309660 0.500000 
865 1 0.646558 0.292760 0.500000 
866 1 0.656222 0.310026 0.500000 
867 1 0.666551 0.293133 0.500000 
868 1 0.676232 0.310377 0.500000 
869 1 0.686546 0.293475 0.500000 
870 1 0.696238 0.310699 0.500000 
871 1 0.706554 0.293800 0.500000 
872 1 0.716259 0.311008 0.500000 
873 1 0.726560 0.294100 0.500000 
874 1 0.736283 0.311291 0.500000 
875 1 0.746563 0.294382 0.500000 
876 1 0.756310 0.311557 0.500000 
877 1 0.766582 0.294646 0.500000 
878 1 0.776333 0.311814 0.500000 
879 1 0.786594 0.294892 0.500000 
880 1 0.796358 0.312039 0.500000 
881 1 0.806614 0.295141 0.500000 