ITEM: TIMESTEP
1700
ITEM: NUMBER OF ATOMS
2850
ITEM: BOX BOUNDS ss ss pp
-28.0536 28.3253 
-28.9988 28.9984 
-0.5 0.5 
ITEM: ATOMS id type xs ys zs
1 1 0.012661 0.000000 0.500000 
2 1 0.022340 0.017073 0.500000 
3 1 0.032688 0.000597 0.500000 
4 1 0.042369 0.017677 0.500000 
5 1 0.052715 0.001202 0.500000 
6 1 0.062397 0.018289 0.500000 
7 1 0.072742 0.001814 0.500000 
8 1 0.082426 0.018911 0.500000 
9 1 0.092767 0.002433 0.500000 
10 1 0.102455 0.019539 0.500000 
11 1 0.112794 0.003060 0.500000 
12 1 0.122484 0.020177 0.500000 
13 1 0.132817 0.003697 0.500000 
14 1 0.142511 0.020822 0.500000 
15 1 0.152841 0.004338 0.500000 
16 1 0.162536 0.021475 0.500000 
17 1 0.172861 0.004988 0.500000 
18 1 0.182559 0.022136 0.500000 
19 1 0.192879 0.005643 0.500000 
20 1 0.202579 0.022803 0.500000 
21 1 0.212895 0.006305 0.500000 
22 1 0.222596 0.023475 0.500000 
23 1 0.232906 0.006973 0.500000 
24 1 0.242610 0.024155 0.500000 
25 1 0.252912 0.007645 0.500000 
26 1 0.262618 0.024839 0.500000 
27 1 0.272914 0.008319 0.500000 
28 1 0.282622 0.025527 0.500000 
29 1 0.292911 0.008997 0.500000 
30 1 0.302619 0.026217 0.500000 
31 1 0.312901 0.009676 0.500000 
32 1 0.322610 0.026908 0.500000 
33 1 0.332885 0.010356 0.500000 
34 1 0.342593 0.027600 0.500000 
35 1 0.352861 0.011033 0.500000 
36 1 0.362570 0.028289 0.500000 
37 1 0.372830 0.011707 0.500000 
38 1 0.382537 0.028974 0.500000 
39 1 0.392791 0.012376 0.500000 
40 1 0.402497 0.029655 0.500000 
41 1 0.412744 0.013039 0.500000 
42 1 0.422448 0.030326 0.500000 
43 1 0.432688 0.013694 0.500000 
44 1 0.442390 0.030989 0.500000 
45 1 0.452624 0.014337 0.500000 
46 1 0.462324 0.031639 0.500000 
47 1 0.472553 0.014968 0.500000 
48 1 0.482250 0.032276 0.500000 
49 1 0.492474 0.015584 0.500000 
50 1 0.502167 0.032896 0.500000 
51 1 0.512388 0.016184 0.500000 
52 1 0.522078 0.033498 0.500000 
53 1 0.532295 0.016766 0.500000 
54 1 0.541983 0.034081 0.500000 
55 1 0.552198 0.017330 0.500000 
56 1 0.561882 0.034643 0.500000 
57 1 0.572095 0.017873 0.500000 
58 1 0.581777 0.035184 0.500000 
59 1 0.591989 0.018396 0.500000 
60 1 0.601668 0.035702 0.500000 
61 1 0.611880 0.018896 0.500000 
62 1 0.621558 0.036195 0.500000 
63 1 0.631769 0.019373 0.500000 
64 1 0.641446 0.036666 0.500000 
65 1 0.651657 0.019829 0.500000 
66 1 0.661334 0.037110 0.500000 
67 1 0.671546 0.020261 0.500000 
68 1 0.681223 0.037533 0.500000 
69 1 0.691436 0.020670 0.500000 
70 1 0.701115 0.037931 0.500000 
71 1 0.711328 0.021058 0.500000 
72 1 0.721007 0.038307 0.500000 
73 1 0.731222 0.021423 0.500000 
74 1 0.740905 0.038660 0.500000 
75 1 0.751120 0.021768 0.500000 
76 1 0.760806 0.038993 0.500000 
77 1 0.771021 0.022094 0.500000 
78 1 0.780711 0.039305 0.500000 
79 1 0.790927 0.022399 0.500000 
80 1 0.800620 0.039597 0.500000 
81 1 0.810837 0.022687 0.500000 
82 1 0.820536 0.039873 0.500000 
83 1 0.830751 0.022958 0.500000 
84 1 0.840456 0.040130 0.500000 
85 1 0.850671 0.023211 0.500000 
86 1 0.860382 0.040369 0.500000 
87 1 0.870595 0.023449 0.500000 
88 1 0.880312 0.040595 0.500000 
89 1 0.890525 0.023674 0.500000 
90 1 0.900248 0.040807 0.500000 
91 1 0.910459 0.023884 0.500000 
92 1 0.920188 0.041005 0.500000 
93 1 0.930398 0.024080 0.500000 
94 1 0.940134 0.041192 0.500000 
95 1 0.950341 0.024267 0.500000 
96 1 0.960084 0.041368 0.500000 
97 1 0.970290 0.024443 0.500000 
98 1 0.980040 0.041531 0.500000 
99 1 0.990243 0.024606 0.500000 
100 1 1.000000 0.041686 0.500000 
101 1 0.011983 0.033545 0.500000 
102 1 0.021650 0.050615 0.500000 
103 1 0.032014 0.034148 0.500000 
104 1 0.041680 0.051227 0.500000 
105 1 0.052044 0.034760 0.500000 
106 1 0.061715 0.051847 0.500000 
107 1 0.072075 0.035381 0.500000 
108 1 0.081790 0.052492 0.500000 
109 1 0.092107 0.036012 0.500000 
110 1 0.101811 0.053141 0.500000 
111 1 0.112138 0.036650 0.500000 
112 1 0.121829 0.053792 0.500000 
113 1 0.132168 0.037297 0.500000 
114 1 0.141842 0.054434 0.500000 
115 1 0.152197 0.037952 0.500000 
116 1 0.161845 0.055104 0.500000 
117 1 0.172226 0.038617 0.500000 
118 1 0.181864 0.055785 0.500000 
119 1 0.192251 0.039288 0.500000 
120 1 0.201898 0.056510 0.500000 
121 1 0.212274 0.039967 0.500000 
122 1 0.221905 0.057200 0.500000 
123 1 0.232293 0.040654 0.500000 
124 1 0.241922 0.057865 0.500000 
125 1 0.252309 0.041345 0.500000 
126 1 0.261957 0.058576 0.500000 
127 1 0.272318 0.042042 0.500000 
128 1 0.281962 0.059302 0.500000 
129 1 0.292324 0.042743 0.500000 
130 1 0.301975 0.059990 0.500000 
131 1 0.312323 0.043447 0.500000 
132 1 0.321988 0.060682 0.500000 
133 1 0.332314 0.044150 0.500000 
134 1 0.341977 0.061421 0.500000 
135 1 0.352297 0.044856 0.500000 
136 1 0.361946 0.062150 0.500000 
137 1 0.372273 0.045557 0.500000 
138 1 0.381899 0.062901 0.500000 
139 1 0.392240 0.046254 0.500000 
140 1 0.401858 0.063569 0.500000 
141 1 0.412198 0.046944 0.500000 
142 1 0.421834 0.064241 0.500000 
143 1 0.432147 0.047626 0.500000 
144 1 0.441775 0.064944 0.500000 
145 1 0.452087 0.048297 0.500000 
146 1 0.461711 0.065584 0.500000 
147 1 0.472018 0.048954 0.500000 
148 1 0.481651 0.066229 0.500000 
149 1 0.491940 0.049595 0.500000 
150 1 0.501558 0.066876 0.500000 
151 1 0.511855 0.050220 0.500000 
152 1 0.521465 0.067478 0.500000 
153 1 0.531762 0.050823 0.500000 
154 1 0.541377 0.068091 0.500000 
155 1 0.551663 0.051406 0.500000 
156 1 0.561271 0.068660 0.500000 
157 1 0.571560 0.051966 0.500000 
158 1 0.581173 0.069218 0.500000 
159 1 0.591452 0.052503 0.500000 
160 1 0.601080 0.069724 0.500000 
161 1 0.611341 0.053013 0.500000 
162 1 0.620973 0.070219 0.500000 
163 1 0.631230 0.053499 0.500000 
164 1 0.640875 0.070701 0.500000 
165 1 0.651117 0.053960 0.500000 
166 1 0.660764 0.071165 0.500000 
167 1 0.671006 0.054396 0.500000 
168 1 0.680656 0.071609 0.500000 
169 1 0.690897 0.054806 0.500000 
170 1 0.700560 0.072000 0.500000 
171 1 0.710789 0.055192 0.500000 
172 1 0.720470 0.072371 0.500000 
173 1 0.730685 0.055554 0.500000 
174 1 0.740375 0.072733 0.500000 
175 1 0.750586 0.055894 0.500000 
176 1 0.760296 0.073066 0.500000 
177 1 0.770490 0.056213 0.500000 
178 1 0.780217 0.073379 0.500000 
179 1 0.790400 0.056511 0.500000 
180 1 0.800134 0.073670 0.500000 
181 1 0.810316 0.056789 0.500000 
182 1 0.820055 0.073923 0.500000 
183 1 0.830238 0.057049 0.500000 
184 1 0.839960 0.074186 0.500000 
185 1 0.850164 0.057294 0.500000 
186 1 0.859881 0.074428 0.500000 
187 1 0.870095 0.057522 0.500000 
188 1 0.879830 0.074645 0.500000 
189 1 0.890032 0.057734 0.500000 
190 1 0.899788 0.074860 0.500000 
191 1 0.909975 0.057934 0.500000 
192 1 0.919739 0.075050 0.500000 
193 1 0.929922 0.058120 0.500000 
194 1 0.939685 0.075227 0.500000 
195 1 0.949875 0.058294 0.500000 
196 1 0.959621 0.075390 0.500000 
197 1 0.969833 0.058458 0.500000 
198 1 0.979588 0.075542 0.500000 
199 1 0.989796 0.058613 0.500000 
200 1 0.999557 0.075685 0.500000 
201 1 0.011275 0.067077 0.500000 
202 1 0.020924 0.084144 0.500000 
203 1 0.031308 0.067688 0.500000 
204 1 0.040959 0.084763 0.500000 
205 1 0.051342 0.068307 0.500000 
206 1 0.060994 0.085390 0.500000 
207 1 0.071376 0.068936 0.500000 
208 1 0.081021 0.086046 0.500000 
209 1 0.091418 0.069616 0.500000 
210 1 0.101073 0.086738 0.500000 
211 1 0.111456 0.070268 0.500000 
212 1 0.121118 0.087400 0.500000 
213 1 0.131521 0.070939 0.500000 
214 1 0.141145 0.088135 0.500000 
215 1 0.151533 0.071627 0.500000 
216 1 0.161170 0.088819 0.500000 
217 1 0.171535 0.072307 0.500000 
218 1 0.181189 0.089516 0.500000 
219 1 0.191533 0.073007 0.500000 
220 1 0.201206 0.090215 0.500000 
221 1 0.211552 0.073720 0.500000 
222 1 0.221231 0.090890 0.500000 
223 1 0.231570 0.074386 0.500000 
224 1 0.241233 0.091599 0.500000 
225 1 0.251576 0.075084 0.500000 
226 1 0.261252 0.092324 0.500000 
227 1 0.271588 0.075824 0.500000 
228 1 0.281286 0.093047 0.500000 
229 1 0.291613 0.076527 0.500000 
230 1 0.301300 0.093759 0.500000 
231 1 0.311666 0.077235 0.500000 
232 1 0.321316 0.094513 0.500000 
233 1 0.331663 0.077958 0.500000 
234 1 0.341297 0.095272 0.500000 
235 1 0.351627 0.078718 0.500000 
236 1 0.361282 0.096014 0.500000 
237 1 0.371598 0.079470 0.500000 
238 1 0.381259 0.096748 0.500000 
239 1 0.391559 0.080171 0.500000 
240 1 0.401177 0.097482 0.500000 
241 1 0.411483 0.080855 0.500000 
242 1 0.421086 0.098211 0.500000 
243 1 0.431397 0.081580 0.500000 
244 1 0.441032 0.098885 0.500000 
245 1 0.451352 0.082242 0.500000 
246 1 0.460979 0.099585 0.500000 
247 1 0.471304 0.082918 0.500000 
248 1 0.480900 0.100280 0.500000 
249 1 0.491235 0.083603 0.500000 
250 1 0.500833 0.100929 0.500000 
251 1 0.511150 0.084208 0.500000 
252 1 0.520766 0.101515 0.500000 
253 1 0.531087 0.084786 0.500000 
254 1 0.540681 0.102097 0.500000 
255 1 0.551016 0.085385 0.500000 
256 1 0.560600 0.102688 0.500000 
257 1 0.570911 0.085958 0.500000 
258 1 0.580543 0.103206 0.500000 
259 1 0.590833 0.086470 0.500000 
260 1 0.600468 0.103729 0.500000 
261 1 0.610755 0.086990 0.500000 
262 1 0.620388 0.104238 0.500000 
263 1 0.630673 0.087467 0.500000 
264 1 0.640298 0.104718 0.500000 
265 1 0.650578 0.087933 0.500000 
266 1 0.660196 0.105197 0.500000 
267 1 0.670464 0.088393 0.500000 
268 1 0.680096 0.105625 0.500000 
269 1 0.690363 0.088813 0.500000 
270 1 0.700003 0.106030 0.500000 
271 1 0.710265 0.089185 0.500000 
272 1 0.719900 0.106399 0.500000 
273 1 0.730171 0.089564 0.500000 
274 1 0.739801 0.106774 0.500000 
275 1 0.750074 0.089922 0.500000 
276 1 0.759701 0.107114 0.500000 
277 1 0.769989 0.090251 0.500000 
278 1 0.779627 0.107425 0.500000 
279 1 0.789903 0.090549 0.500000 
280 1 0.799566 0.107702 0.500000 
281 1 0.809823 0.090804 0.500000 
282 1 0.819499 0.107960 0.500000 
283 1 0.829759 0.091077 0.500000 
284 1 0.839438 0.108223 0.500000 
285 1 0.849692 0.091332 0.500000 
286 1 0.859390 0.108475 0.500000 
287 1 0.869621 0.091564 0.500000 
288 1 0.879359 0.108696 0.500000 
289 1 0.889564 0.091773 0.500000 
290 1 0.899325 0.108891 0.500000 
291 1 0.909524 0.091982 0.500000 
292 1 0.919285 0.109072 0.500000 
293 1 0.929475 0.092162 0.500000 
294 1 0.939221 0.109257 0.500000 
295 1 0.949407 0.092323 0.500000 
296 1 0.959160 0.109410 0.500000 
297 1 0.969375 0.092475 0.500000 
298 1 0.979136 0.109550 0.500000 
299 1 0.989349 0.092617 0.500000 
300 1 0.999117 0.109681 0.500000 
301 1 0.010532 0.100598 0.500000 
302 1 0.020165 0.117663 0.500000 
303 1 0.030566 0.101214 0.500000 
304 1 0.040201 0.118287 0.500000 
305 1 0.050602 0.101839 0.500000 
306 1 0.060239 0.118920 0.500000 
307 1 0.070640 0.102476 0.500000 
308 1 0.080282 0.119601 0.500000 
309 1 0.090687 0.103174 0.500000 
310 1 0.100336 0.120309 0.500000 
311 1 0.110736 0.103871 0.500000 
312 1 0.120396 0.121018 0.500000 
313 1 0.130758 0.104582 0.500000 
314 1 0.140436 0.121724 0.500000 
315 1 0.150795 0.105285 0.500000 
316 1 0.160444 0.122442 0.500000 
317 1 0.170826 0.105994 0.500000 
318 1 0.180457 0.123177 0.500000 
319 1 0.190837 0.106703 0.500000 
320 1 0.200486 0.123878 0.500000 
321 1 0.210851 0.107388 0.500000 
322 1 0.220504 0.124604 0.500000 
323 1 0.230865 0.108103 0.500000 
324 1 0.240529 0.125320 0.500000 
325 1 0.250903 0.108821 0.500000 
326 1 0.260566 0.126031 0.500000 
327 1 0.270959 0.109543 0.500000 
328 1 0.280600 0.126794 0.500000 
329 1 0.290974 0.110295 0.500000 
330 1 0.300608 0.127536 0.500000 
331 1 0.310972 0.111028 0.500000 
332 1 0.320608 0.128295 0.500000 
333 1 0.330965 0.111802 0.500000 
334 1 0.340589 0.129103 0.500000 
335 1 0.350937 0.112575 0.500000 
336 1 0.360537 0.129920 0.500000 
337 1 0.370901 0.113333 0.500000 
338 1 0.380471 0.130726 0.500000 
339 1 0.390835 0.114106 0.500000 
340 1 0.400432 0.131453 0.500000 
341 1 0.410776 0.114845 0.500000 
342 1 0.420382 0.132170 0.500000 
343 1 0.430723 0.115535 0.500000 
344 1 0.440300 0.132872 0.500000 
345 1 0.450652 0.116204 0.500000 
346 1 0.460228 0.133528 0.500000 
347 1 0.470594 0.116918 0.500000 
348 1 0.480196 0.134202 0.500000 
349 1 0.490526 0.117562 0.500000 
350 1 0.500117 0.134881 0.500000 
351 1 0.510451 0.118200 0.500000 
352 1 0.520042 0.135490 0.500000 
353 1 0.530392 0.118810 0.500000 
354 1 0.539983 0.136096 0.500000 
355 1 0.550318 0.119395 0.500000 
356 1 0.559912 0.136683 0.500000 
357 1 0.570244 0.119942 0.500000 
358 1 0.579830 0.137235 0.500000 
359 1 0.590151 0.120476 0.500000 
360 1 0.599751 0.137740 0.500000 
361 1 0.610070 0.120983 0.500000 
362 1 0.619680 0.138243 0.500000 
363 1 0.629990 0.121481 0.500000 
364 1 0.639622 0.138741 0.500000 
365 1 0.649899 0.121975 0.500000 
366 1 0.659565 0.139222 0.500000 
367 1 0.669816 0.122441 0.500000 
368 1 0.679493 0.139676 0.500000 
369 1 0.689721 0.122856 0.500000 
370 1 0.699397 0.140092 0.500000 
371 1 0.709635 0.123268 0.500000 
372 1 0.719337 0.140488 0.500000 
373 1 0.729557 0.123631 0.500000 
374 1 0.739270 0.140815 0.500000 
375 1 0.749493 0.123972 0.500000 
376 1 0.759207 0.141159 0.500000 
377 1 0.769417 0.124290 0.500000 
378 1 0.779149 0.141458 0.500000 
379 1 0.789344 0.124585 0.500000 
380 1 0.799083 0.141742 0.500000 
381 1 0.809278 0.124857 0.500000 
382 1 0.819004 0.142012 0.500000 
383 1 0.829216 0.125117 0.500000 
384 1 0.838945 0.142244 0.500000 
385 1 0.849180 0.125354 0.500000 
386 1 0.858917 0.142482 0.500000 
387 1 0.869163 0.125596 0.500000 
388 1 0.878895 0.142709 0.500000 
389 1 0.889136 0.125816 0.500000 
390 1 0.898855 0.142907 0.500000 
391 1 0.909083 0.125973 0.500000 
392 1 0.918787 0.143068 0.500000 
393 1 0.929019 0.126158 0.500000 
394 1 0.938733 0.143259 0.500000 
395 1 0.948940 0.126349 0.500000 
396 1 0.958701 0.143428 0.500000 
397 1 0.968919 0.126487 0.500000 
398 1 0.978689 0.143555 0.500000 
399 1 0.988905 0.126616 0.500000 
400 1 0.998682 0.143674 0.500000 
401 1 0.009754 0.134110 0.500000 
402 1 0.019367 0.151171 0.500000 
403 1 0.029790 0.134729 0.500000 
404 1 0.039403 0.151799 0.500000 
405 1 0.049825 0.135360 0.500000 
406 1 0.059442 0.152437 0.500000 
407 1 0.069865 0.136003 0.500000 
408 1 0.079491 0.153139 0.500000 
409 1 0.089910 0.136726 0.500000 
410 1 0.099543 0.153851 0.500000 
411 1 0.109979 0.137439 0.500000 
412 1 0.119600 0.154599 0.500000 
413 1 0.130026 0.138164 0.500000 
414 1 0.139627 0.155339 0.500000 
415 1 0.150038 0.138895 0.500000 
416 1 0.159646 0.156088 0.500000 
417 1 0.170044 0.139631 0.500000 
418 1 0.179682 0.156822 0.500000 
419 1 0.190088 0.140350 0.500000 
420 1 0.199700 0.157555 0.500000 
421 1 0.210121 0.141082 0.500000 
422 1 0.219726 0.158257 0.500000 
423 1 0.230150 0.141815 0.500000 
424 1 0.239773 0.158986 0.500000 
425 1 0.250157 0.142520 0.500000 
426 1 0.259785 0.159736 0.500000 
427 1 0.270173 0.143256 0.500000 
428 1 0.279805 0.160532 0.500000 
429 1 0.290215 0.144055 0.500000 
430 1 0.299854 0.161339 0.500000 
431 1 0.310241 0.144812 0.500000 
432 1 0.319843 0.162195 0.500000 
433 1 0.330213 0.145637 0.500000 
434 1 0.339835 0.163003 0.500000 
435 1 0.350177 0.146466 0.500000 
436 1 0.359814 0.163784 0.500000 
437 1 0.370151 0.147282 0.500000 
438 1 0.379789 0.164586 0.500000 
439 1 0.390114 0.148039 0.500000 
440 1 0.399732 0.165405 0.500000 
441 1 0.410046 0.148790 0.500000 
442 1 0.419653 0.166162 0.500000 
443 1 0.429966 0.149532 0.500000 
444 1 0.439601 0.166874 0.500000 
445 1 0.449902 0.150207 0.500000 
446 1 0.459540 0.167569 0.500000 
447 1 0.469835 0.150864 0.500000 
448 1 0.479449 0.168276 0.500000 
449 1 0.489745 0.151575 0.500000 
450 1 0.499361 0.168928 0.500000 
451 1 0.509677 0.152226 0.500000 
452 1 0.519307 0.169553 0.500000 
453 1 0.529614 0.152818 0.500000 
454 1 0.539228 0.170162 0.500000 
455 1 0.549545 0.153419 0.500000 
456 1 0.559176 0.170723 0.500000 
457 1 0.569485 0.153979 0.500000 
458 1 0.579110 0.171287 0.500000 
459 1 0.589419 0.154513 0.500000 
460 1 0.599050 0.171819 0.500000 
461 1 0.609352 0.155027 0.500000 
462 1 0.618995 0.172301 0.500000 
463 1 0.629305 0.155519 0.500000 
464 1 0.638933 0.172793 0.500000 
465 1 0.649250 0.156012 0.500000 
466 1 0.658886 0.173268 0.500000 
467 1 0.669190 0.156472 0.500000 
468 1 0.678837 0.173722 0.500000 
469 1 0.689115 0.156900 0.500000 
470 1 0.698778 0.174116 0.500000 
471 1 0.709047 0.157288 0.500000 
472 1 0.718702 0.174507 0.500000 
473 1 0.728993 0.157684 0.500000 
474 1 0.738648 0.174867 0.500000 
475 1 0.748925 0.158011 0.500000 
476 1 0.758592 0.175178 0.500000 
477 1 0.768878 0.158325 0.500000 
478 1 0.778560 0.175473 0.500000 
479 1 0.788825 0.158612 0.500000 
480 1 0.798542 0.175729 0.500000 
481 1 0.808787 0.158875 0.500000 
482 1 0.818514 0.175986 0.500000 
483 1 0.828733 0.159133 0.500000 
484 1 0.838480 0.176249 0.500000 
485 1 0.848670 0.159377 0.500000 
486 1 0.858441 0.176482 0.500000 
487 1 0.868646 0.159602 0.500000 
488 1 0.878384 0.176719 0.500000 
489 1 0.888614 0.159813 0.500000 
490 1 0.898364 0.176895 0.500000 
491 1 0.908583 0.159993 0.500000 
492 1 0.918334 0.177086 0.500000 
493 1 0.928535 0.160178 0.500000 
494 1 0.938295 0.177295 0.500000 
495 1 0.948477 0.160370 0.500000 
496 1 0.958249 0.177440 0.500000 
497 1 0.968470 0.160496 0.500000 
498 1 0.978251 0.177553 0.500000 
499 1 0.988467 0.160611 0.500000 
500 1 0.998258 0.177659 0.500000 
501 1 0.008938 0.167610 0.500000 
502 1 0.018532 0.184668 0.500000 
503 1 0.028972 0.168234 0.500000 
504 1 0.038566 0.185299 0.500000 
505 1 0.049008 0.168868 0.500000 
506 1 0.058602 0.185942 0.500000 
507 1 0.069047 0.169517 0.500000 
508 1 0.078638 0.186628 0.500000 
509 1 0.089101 0.170268 0.500000 
510 1 0.098706 0.187403 0.500000 
511 1 0.109144 0.171001 0.500000 
512 1 0.118753 0.188155 0.500000 
513 1 0.129197 0.171758 0.500000 
514 1 0.138793 0.188920 0.500000 
515 1 0.149229 0.172518 0.500000 
516 1 0.158834 0.189677 0.500000 
517 1 0.169274 0.173269 0.500000 
518 1 0.178887 0.190434 0.500000 
519 1 0.189318 0.174019 0.500000 
520 1 0.198938 0.191191 0.500000 
521 1 0.209348 0.174728 0.500000 
522 1 0.218977 0.191909 0.500000 
523 1 0.229368 0.175422 0.500000 
524 1 0.239005 0.192653 0.500000 
525 1 0.249398 0.176203 0.500000 
526 1 0.259055 0.193445 0.500000 
527 1 0.269435 0.177003 0.500000 
528 1 0.279096 0.194267 0.500000 
529 1 0.289474 0.177830 0.500000 
530 1 0.299123 0.195142 0.500000 
531 1 0.309470 0.178688 0.500000 
532 1 0.319122 0.195988 0.500000 
533 1 0.329476 0.179505 0.500000 
534 1 0.339113 0.196820 0.500000 
535 1 0.349479 0.180320 0.500000 
536 1 0.359084 0.197694 0.500000 
537 1 0.369430 0.181131 0.500000 
538 1 0.379025 0.198556 0.500000 
539 1 0.389360 0.181973 0.500000 
540 1 0.398967 0.199366 0.500000 
541 1 0.409325 0.182782 0.500000 
542 1 0.418923 0.200111 0.500000 
543 1 0.429281 0.183509 0.500000 
544 1 0.438856 0.200913 0.500000 
545 1 0.449199 0.184243 0.500000 
546 1 0.458784 0.201636 0.500000 
547 1 0.469117 0.184952 0.500000 
548 1 0.478721 0.202293 0.500000 
549 1 0.489049 0.185623 0.500000 
550 1 0.498635 0.202995 0.500000 
551 1 0.508956 0.186248 0.500000 
552 1 0.518550 0.203638 0.500000 
553 1 0.528869 0.186892 0.500000 
554 1 0.538483 0.204225 0.500000 
555 1 0.548813 0.187471 0.500000 
556 1 0.558430 0.204815 0.500000 
557 1 0.568762 0.188055 0.500000 
558 1 0.578381 0.205362 0.500000 
559 1 0.588705 0.188568 0.500000 
560 1 0.598310 0.205845 0.500000 
561 1 0.608665 0.189078 0.500000 
562 1 0.618270 0.206339 0.500000 
563 1 0.628609 0.189570 0.500000 
564 1 0.638234 0.206833 0.500000 
565 1 0.648555 0.190045 0.500000 
566 1 0.658190 0.207284 0.500000 
567 1 0.668520 0.190512 0.500000 
568 1 0.678135 0.207734 0.500000 
569 1 0.688475 0.190944 0.500000 
570 1 0.698084 0.208153 0.500000 
571 1 0.708408 0.191347 0.500000 
572 1 0.718050 0.208521 0.500000 
573 1 0.728364 0.191693 0.500000 
574 1 0.738023 0.208871 0.500000 
575 1 0.748332 0.192038 0.500000 
576 1 0.758023 0.209181 0.500000 
577 1 0.768311 0.192318 0.500000 
578 1 0.778011 0.209440 0.500000 
579 1 0.788302 0.192593 0.500000 
580 1 0.798012 0.209705 0.500000 
581 1 0.808273 0.192850 0.500000 
582 1 0.817975 0.209969 0.500000 
583 1 0.828219 0.193108 0.500000 
584 1 0.837947 0.210204 0.500000 
585 1 0.848196 0.193345 0.500000 
586 1 0.857915 0.210446 0.500000 
587 1 0.868165 0.193590 0.500000 
588 1 0.877897 0.210665 0.500000 
589 1 0.888127 0.193803 0.500000 
590 1 0.897880 0.210911 0.500000 
591 1 0.908075 0.194007 0.500000 
592 1 0.917833 0.211113 0.500000 
593 1 0.928045 0.194194 0.500000 
594 1 0.937812 0.211296 0.500000 
595 1 0.948021 0.194385 0.500000 
596 1 0.957807 0.211443 0.500000 
597 1 0.968031 0.194496 0.500000 
598 1 0.977825 0.211543 0.500000 
599 1 0.988043 0.194599 0.500000 
600 1 0.997847 0.211634 0.500000 
601 1 0.008083 0.201103 0.500000 
602 1 0.017654 0.218157 0.500000 
603 1 0.028113 0.201727 0.500000 
604 1 0.037684 0.218790 0.500000 
605 1 0.048147 0.202367 0.500000 
606 1 0.057718 0.219436 0.500000 
607 1 0.068185 0.203017 0.500000 
608 1 0.077769 0.220145 0.500000 
609 1 0.088233 0.203763 0.500000 
610 1 0.097838 0.220915 0.500000 
611 1 0.108297 0.204550 0.500000 
612 1 0.117890 0.221696 0.500000 
613 1 0.128354 0.205302 0.500000 
614 1 0.137923 0.222477 0.500000 
615 1 0.148407 0.206092 0.500000 
616 1 0.158003 0.223269 0.500000 
617 1 0.168438 0.206849 0.500000 
618 1 0.178079 0.224018 0.500000 
619 1 0.188491 0.207600 0.500000 
620 1 0.198136 0.224784 0.500000 
621 1 0.208576 0.208372 0.500000 
622 1 0.218191 0.225571 0.500000 
623 1 0.228628 0.209137 0.500000 
624 1 0.238264 0.226333 0.500000 
625 1 0.248665 0.209877 0.500000 
626 1 0.258299 0.227148 0.500000 
627 1 0.268695 0.210692 0.500000 
628 1 0.278319 0.228005 0.500000 
629 1 0.288732 0.211566 0.500000 
630 1 0.298350 0.228923 0.500000 
631 1 0.308762 0.212470 0.500000 
632 1 0.318378 0.229826 0.500000 
633 1 0.328775 0.213340 0.500000 
634 1 0.338381 0.230718 0.500000 
635 1 0.348750 0.214217 0.500000 
636 1 0.358336 0.231618 0.500000 
637 1 0.368699 0.215102 0.500000 
638 1 0.378281 0.232478 0.500000 
639 1 0.388653 0.215948 0.500000 
640 1 0.398238 0.233329 0.500000 
641 1 0.408604 0.216740 0.500000 
642 1 0.418165 0.234164 0.500000 
643 1 0.428501 0.217528 0.500000 
644 1 0.438119 0.234920 0.500000 
645 1 0.448457 0.218294 0.500000 
646 1 0.458063 0.235677 0.500000 
647 1 0.468426 0.219000 0.500000 
648 1 0.477973 0.236443 0.500000 
649 1 0.488341 0.219733 0.500000 
650 1 0.497936 0.237106 0.500000 
651 1 0.508282 0.220380 0.500000 
652 1 0.517870 0.237761 0.500000 
653 1 0.528219 0.220997 0.500000 
654 1 0.537780 0.238392 0.500000 
655 1 0.548129 0.221602 0.500000 
656 1 0.557733 0.238928 0.500000 
657 1 0.568078 0.222146 0.500000 
658 1 0.577695 0.239465 0.500000 
659 1 0.588035 0.222667 0.500000 
660 1 0.597653 0.239955 0.500000 
661 1 0.607977 0.223132 0.500000 
662 1 0.617599 0.240409 0.500000 
663 1 0.627922 0.223616 0.500000 
664 1 0.637552 0.240879 0.500000 
665 1 0.647877 0.224081 0.500000 
666 1 0.657514 0.241319 0.500000 
667 1 0.667840 0.224529 0.500000 
668 1 0.677486 0.241762 0.500000 
669 1 0.687789 0.224954 0.500000 
670 1 0.697470 0.242163 0.500000 
671 1 0.707750 0.225342 0.500000 
672 1 0.717455 0.242527 0.500000 
673 1 0.727726 0.225684 0.500000 
674 1 0.737456 0.242830 0.500000 
675 1 0.747732 0.226003 0.500000 
676 1 0.757476 0.243140 0.500000 
677 1 0.767726 0.226321 0.500000 
678 1 0.777502 0.243410 0.500000 
679 1 0.787713 0.226539 0.500000 
680 1 0.797462 0.243669 0.500000 
681 1 0.807704 0.226813 0.500000 
682 1 0.817442 0.243897 0.500000 
683 1 0.827695 0.227049 0.500000 
684 1 0.837421 0.244148 0.500000 
685 1 0.847684 0.227307 0.500000 
686 1 0.857421 0.244399 0.500000 
687 1 0.867676 0.227536 0.500000 
688 1 0.877439 0.244651 0.500000 
689 1 0.887652 0.227772 0.500000 
690 1 0.897436 0.244884 0.500000 
691 1 0.907634 0.228023 0.500000 
692 1 0.917421 0.245123 0.500000 
693 1 0.927604 0.228213 0.500000 
694 1 0.937401 0.245291 0.500000 
695 1 0.947580 0.228392 0.500000 
696 1 0.957383 0.245436 0.500000 
697 1 0.967605 0.228489 0.500000 
698 1 0.977417 0.245522 0.500000 
699 1 0.987634 0.228577 0.500000 
700 1 0.997455 0.245600 0.500000 
701 1 0.007189 0.234587 0.500000 
702 1 0.016737 0.251640 0.500000 
703 1 0.027214 0.235215 0.500000 
704 1 0.036760 0.252274 0.500000 
705 1 0.047243 0.235854 0.500000 
706 1 0.056787 0.252921 0.500000 
707 1 0.067275 0.236508 0.500000 
708 1 0.076842 0.253630 0.500000 
709 1 0.087351 0.237268 0.500000 
710 1 0.096894 0.254440 0.500000 
711 1 0.107422 0.238087 0.500000 
712 1 0.116958 0.255258 0.500000 
713 1 0.127454 0.238879 0.500000 
714 1 0.137001 0.256035 0.500000 
715 1 0.147503 0.239654 0.500000 
716 1 0.157081 0.256812 0.500000 
717 1 0.167595 0.240423 0.500000 
718 1 0.177170 0.257582 0.500000 
719 1 0.187686 0.241189 0.500000 
720 1 0.197251 0.258374 0.500000 
721 1 0.207750 0.241975 0.500000 
722 1 0.217335 0.259152 0.500000 
723 1 0.227820 0.242752 0.500000 
724 1 0.237407 0.260001 0.500000 
725 1 0.247861 0.243589 0.500000 
726 1 0.257456 0.260889 0.500000 
727 1 0.267901 0.244468 0.500000 
728 1 0.277504 0.261771 0.500000 
729 1 0.287935 0.245355 0.500000 
730 1 0.297535 0.262686 0.500000 
731 1 0.307955 0.246278 0.500000 
732 1 0.317548 0.263634 0.500000 
733 1 0.327957 0.247170 0.500000 
734 1 0.337531 0.264548 0.500000 
735 1 0.347950 0.248096 0.500000 
736 1 0.357516 0.265509 0.500000 
737 1 0.367904 0.249006 0.500000 
738 1 0.377495 0.266441 0.500000 
739 1 0.387846 0.249882 0.500000 
740 1 0.397466 0.267347 0.500000 
741 1 0.407800 0.250766 0.500000 
742 1 0.417445 0.268152 0.500000 
743 1 0.427773 0.251528 0.500000 
744 1 0.437381 0.268979 0.500000 
745 1 0.447717 0.252330 0.500000 
746 1 0.457311 0.269811 0.500000 
747 1 0.467633 0.253133 0.500000 
748 1 0.477285 0.270499 0.500000 
749 1 0.487594 0.253817 0.500000 
750 1 0.497224 0.271230 0.500000 
751 1 0.507526 0.254508 0.500000 
752 1 0.517156 0.271886 0.500000 
753 1 0.527460 0.255146 0.500000 
754 1 0.537101 0.272460 0.500000 
755 1 0.547420 0.255707 0.500000 
756 1 0.557059 0.273064 0.500000 
757 1 0.567354 0.256246 0.500000 
758 1 0.577037 0.273540 0.500000 
759 1 0.587329 0.256744 0.500000 
760 1 0.597021 0.274031 0.500000 
761 1 0.607306 0.257232 0.500000 
762 1 0.617010 0.274519 0.500000 
763 1 0.627252 0.257680 0.500000 
764 1 0.636978 0.274948 0.500000 
765 1 0.647227 0.258130 0.500000 
766 1 0.656962 0.275387 0.500000 
767 1 0.667206 0.258555 0.500000 
768 1 0.676952 0.275782 0.500000 
769 1 0.687193 0.258967 0.500000 
770 1 0.696937 0.276186 0.500000 
771 1 0.707174 0.259351 0.500000 
772 1 0.716905 0.276529 0.500000 
773 1 0.727176 0.259680 0.500000 
774 1 0.736898 0.276845 0.500000 
775 1 0.747180 0.259991 0.500000 
776 1 0.756919 0.277133 0.500000 
777 1 0.767206 0.260257 0.500000 
778 1 0.776943 0.277402 0.500000 
779 1 0.787216 0.260540 0.500000 
780 1 0.796952 0.277676 0.500000 
781 1 0.807213 0.260782 0.500000 
782 1 0.816968 0.277902 0.500000 
783 1 0.827184 0.261016 0.500000 
784 1 0.836957 0.278161 0.500000 
785 1 0.847170 0.261274 0.500000 
786 1 0.856974 0.278393 0.500000 
787 1 0.867182 0.261512 0.500000 
788 1 0.876967 0.278630 0.500000 
789 1 0.887191 0.261757 0.500000 
790 1 0.896972 0.278831 0.500000 
791 1 0.907218 0.261968 0.500000 
792 1 0.916982 0.279058 0.500000 
793 1 0.927214 0.262207 0.500000 
794 1 0.936989 0.279290 0.500000 
795 1 0.947159 0.262387 0.500000 
796 1 0.956982 0.279417 0.500000 
797 1 0.967200 0.262468 0.500000 
798 1 0.977036 0.279488 0.500000 
799 1 0.987245 0.262544 0.500000 
800 1 0.997089 0.279555 0.500000 
801 1 0.006256 0.268068 0.500000 
802 1 0.015779 0.285121 0.500000 
803 1 0.026272 0.268696 0.500000 
804 1 0.035792 0.285753 0.500000 
805 1 0.046292 0.269335 0.500000 
806 1 0.055810 0.286400 0.500000 
807 1 0.066319 0.269991 0.500000 
808 1 0.075853 0.287165 0.500000 
809 1 0.086353 0.270805 0.500000 
810 1 0.095903 0.287955 0.500000 
811 1 0.106411 0.271590 0.500000 
812 1 0.115972 0.288727 0.500000 
813 1 0.126491 0.272401 0.500000 
814 1 0.136056 0.289538 0.500000 
815 1 0.146560 0.273170 0.500000 
816 1 0.156124 0.290316 0.500000 
817 1 0.166647 0.273967 0.500000 
818 1 0.176211 0.291136 0.500000 
819 1 0.186728 0.274764 0.500000 
820 1 0.196322 0.291913 0.500000 
821 1 0.206856 0.275557 0.500000 
822 1 0.216421 0.292760 0.500000 
823 1 0.226943 0.276392 0.500000 
824 1 0.236477 0.293657 0.500000 
825 1 0.246977 0.277282 0.500000 
826 1 0.256532 0.294530 0.500000 
827 1 0.267039 0.278154 0.500000 
828 1 0.276589 0.295438 0.500000 
829 1 0.287089 0.279069 0.500000 
830 1 0.296641 0.296403 0.500000 
831 1 0.307110 0.280030 0.500000 
832 1 0.316692 0.297406 0.500000 
833 1 0.327140 0.281016 0.500000 
834 1 0.336723 0.298444 0.500000 
835 1 0.347133 0.282003 0.500000 
836 1 0.356741 0.299443 0.500000 
837 1 0.367117 0.282969 0.500000 
838 1 0.376738 0.300401 0.500000 
839 1 0.387110 0.283887 0.500000 
840 1 0.396710 0.301311 0.500000 
841 1 0.407108 0.284758 0.500000 
842 1 0.416643 0.302279 0.500000 
843 1 0.427030 0.285650 0.500000 
844 1 0.436597 0.303131 0.500000 
845 1 0.446965 0.286481 0.500000 
846 1 0.456591 0.303886 0.500000 
847 1 0.466967 0.287201 0.500000 
848 1 0.476513 0.304720 0.500000 
849 1 0.486891 0.287966 0.500000 
850 1 0.496493 0.305398 0.500000 
851 1 0.506847 0.288647 0.500000 
852 1 0.516457 0.306091 0.500000 
853 1 0.526793 0.289266 0.500000 
854 1 0.536385 0.306701 0.500000 
855 1 0.546714 0.289859 0.500000 
856 1 0.556337 0.307188 0.500000 
857 1 0.566697 0.290382 0.500000 
858 1 0.576298 0.307697 0.500000 
859 1 0.586659 0.290860 0.500000 
860 1 0.596286 0.308132 0.500000 
861 1 0.606652 0.291312 0.500000 
862 1 0.616267 0.308606 0.500000 
863 1 0.626641 0.291778 0.500000 
864 1 0.636278 0.309038 0.500000 
865 1 0.646631 0.292210 0.500000 
866 1 0.656283 0.309457 0.500000 
867 1 0.666651 0.292632 0.500000 
868 1 0.676312 0.309859 0.500000 
869 1 0.686660 0.293017 0.500000 
870 1 0.696338 0.310249 0.500000 
871 1 0.706670 0.293404 0.500000 
872 1 0.716371 0.310587 0.500000 
873 1 0.726660 0.293712 0.500000 
874 1 0.736386 0.310892 0.500000 
875 1 0.746652 0.294008 0.500000 
876 1 0.756416 0.311156 0.500000 
877 1 0.766665 0.294258 0.500000 
878 1 0.776412 0.311422 0.500000 
879 1 0.786678 0.294559 0.500000 
880 1 0.796434 0.311661 0.500000 
881 1 0.806719 0.294798 0.500000 