ITEM: TIMESTEP
500
ITEM: NUMBER OF ATOMS
2850
ITEM: BOX BOUNDS ss ss pp
-28.0536 28.3253 
-28.9988 28.9984 
-0.5 0.5 
ITEM: ATOMS id type xs ys zs
1 1 0.012661 0.000000 0.500000 
2 1 0.022340 0.017073 0.500000 
3 1 0.032688 0.000597 0.500000 
4 1 0.042369 0.017677 0.500000 
5 1 0.052715 0.001202 0.500000 
6 1 0.062397 0.018289 0.500000 
7 1 0.072742 0.001814 0.500000 
8 1 0.082426 0.018911 0.500000 
9 1 0.092767 0.002433 0.500000 
10 1 0.102455 0.019539 0.500000 
11 1 0.112794 0.003060 0.500000 
12 1 0.122484 0.020177 0.500000 
13 1 0.132817 0.003697 0.500000 
14 1 0.142511 0.020822 0.500000 
15 1 0.152841 0.004338 0.500000 
16 1 0.162536 0.021475 0.500000 
17 1 0.172861 0.004988 0.500000 
18 1 0.182559 0.022136 0.500000 
19 1 0.192879 0.005643 0.500000 
20 1 0.202579 0.022803 0.500000 
21 1 0.212895 0.006305 0.500000 
22 1 0.222596 0.023475 0.500000 
23 1 0.232906 0.006973 0.500000 
24 1 0.242610 0.024155 0.500000 
25 1 0.252912 0.007645 0.500000 
26 1 0.262618 0.024839 0.500000 
27 1 0.272914 0.008319 0.500000 
28 1 0.282622 0.025527 0.500000 
29 1 0.292911 0.008997 0.500000 
30 1 0.302619 0.026217 0.500000 
31 1 0.312901 0.009676 0.500000 
32 1 0.322610 0.026908 0.500000 
33 1 0.332885 0.010356 0.500000 
34 1 0.342593 0.027600 0.500000 
35 1 0.352861 0.011033 0.500000 
36 1 0.362570 0.028289 0.500000 
37 1 0.372830 0.011707 0.500000 
38 1 0.382537 0.028974 0.500000 
39 1 0.392791 0.012376 0.500000 
40 1 0.402497 0.029655 0.500000 
41 1 0.412744 0.013039 0.500000 
42 1 0.422448 0.030326 0.500000 
43 1 0.432688 0.013694 0.500000 
44 1 0.442390 0.030989 0.500000 
45 1 0.452624 0.014337 0.500000 
46 1 0.462324 0.031639 0.500000 
47 1 0.472553 0.014968 0.500000 
48 1 0.482250 0.032276 0.500000 
49 1 0.492474 0.015584 0.500000 
50 1 0.502167 0.032896 0.500000 
51 1 0.512388 0.016184 0.500000 
52 1 0.522078 0.033498 0.500000 
53 1 0.532295 0.016766 0.500000 
54 1 0.541983 0.034081 0.500000 
55 1 0.552198 0.017330 0.500000 
56 1 0.561882 0.034643 0.500000 
57 1 0.572095 0.017873 0.500000 
58 1 0.581777 0.035184 0.500000 
59 1 0.591989 0.018396 0.500000 
60 1 0.601668 0.035702 0.500000 
61 1 0.611880 0.018896 0.500000 
62 1 0.621558 0.036195 0.500000 
63 1 0.631769 0.019373 0.500000 
64 1 0.641446 0.036666 0.500000 
65 1 0.651657 0.019829 0.500000 
66 1 0.661334 0.037110 0.500000 
67 1 0.671546 0.020261 0.500000 
68 1 0.681223 0.037533 0.500000 
69 1 0.691436 0.020670 0.500000 
70 1 0.701115 0.037931 0.500000 
71 1 0.711328 0.021058 0.500000 
72 1 0.721007 0.038307 0.500000 
73 1 0.731222 0.021423 0.500000 
74 1 0.740905 0.038660 0.500000 
75 1 0.751120 0.021768 0.500000 
76 1 0.760806 0.038993 0.500000 
77 1 0.771021 0.022094 0.500000 
78 1 0.780711 0.039305 0.500000 
79 1 0.790927 0.022399 0.500000 
80 1 0.800620 0.039597 0.500000 
81 1 0.810837 0.022687 0.500000 
82 1 0.820536 0.039873 0.500000 
83 1 0.830751 0.022958 0.500000 
84 1 0.840456 0.040130 0.500000 
85 1 0.850671 0.023211 0.500000 
86 1 0.860382 0.040369 0.500000 
87 1 0.870595 0.023449 0.500000 
88 1 0.880312 0.040595 0.500000 
89 1 0.890525 0.023674 0.500000 
90 1 0.900248 0.040807 0.500000 
91 1 0.910459 0.023884 0.500000 
92 1 0.920188 0.041005 0.500000 
93 1 0.930398 0.024080 0.500000 
94 1 0.940134 0.041192 0.500000 
95 1 0.950341 0.024267 0.500000 
96 1 0.960084 0.041368 0.500000 
97 1 0.970290 0.024443 0.500000 
98 1 0.980040 0.041531 0.500000 
99 1 0.990243 0.024606 0.500000 
100 1 1.000000 0.041686 0.500000 
101 1 0.011983 0.033545 0.500000 
102 1 0.021650 0.050615 0.500000 
103 1 0.032014 0.034148 0.500000 
104 1 0.041680 0.051227 0.500000 
105 1 0.052044 0.034760 0.500000 
106 1 0.061715 0.051847 0.500000 
107 1 0.072075 0.035381 0.500000 
108 1 0.081766 0.052485 0.500000 
109 1 0.092107 0.036012 0.500000 
110 1 0.101813 0.053133 0.500000 
111 1 0.112138 0.036650 0.500000 
112 1 0.121846 0.053782 0.500000 
113 1 0.132168 0.037297 0.500000 
114 1 0.141874 0.054440 0.500000 
115 1 0.152197 0.037952 0.500000 
116 1 0.161901 0.055118 0.500000 
117 1 0.172226 0.038617 0.500000 
118 1 0.181923 0.055811 0.500000 
119 1 0.192251 0.039288 0.500000 
120 1 0.201939 0.056512 0.500000 
121 1 0.212274 0.039967 0.500000 
122 1 0.221952 0.057211 0.500000 
123 1 0.232293 0.040654 0.500000 
124 1 0.241972 0.057899 0.500000 
125 1 0.252309 0.041345 0.500000 
126 1 0.261998 0.058588 0.500000 
127 1 0.272318 0.042042 0.500000 
128 1 0.282025 0.059295 0.500000 
129 1 0.292324 0.042743 0.500000 
130 1 0.302041 0.060025 0.500000 
131 1 0.312323 0.043447 0.500000 
132 1 0.322047 0.060768 0.500000 
133 1 0.332314 0.044150 0.500000 
134 1 0.342041 0.061513 0.500000 
135 1 0.352297 0.044856 0.500000 
136 1 0.362021 0.062255 0.500000 
137 1 0.372273 0.045557 0.500000 
138 1 0.381987 0.062986 0.500000 
139 1 0.392240 0.046254 0.500000 
140 1 0.401948 0.063692 0.500000 
141 1 0.412198 0.046944 0.500000 
142 1 0.421908 0.064370 0.500000 
143 1 0.432147 0.047626 0.500000 
144 1 0.441857 0.065042 0.500000 
145 1 0.452087 0.048297 0.500000 
146 1 0.461791 0.065717 0.500000 
147 1 0.472018 0.048954 0.500000 
148 1 0.481714 0.066380 0.500000 
149 1 0.491940 0.049595 0.500000 
150 1 0.501629 0.067019 0.500000 
151 1 0.511855 0.050220 0.500000 
152 1 0.521534 0.067644 0.500000 
153 1 0.531762 0.050823 0.500000 
154 1 0.541431 0.068256 0.500000 
155 1 0.551663 0.051406 0.500000 
156 1 0.561326 0.068841 0.500000 
157 1 0.571560 0.051966 0.500000 
158 1 0.581221 0.069399 0.500000 
159 1 0.591452 0.052503 0.500000 
160 1 0.601113 0.069929 0.500000 
161 1 0.611341 0.053013 0.500000 
162 1 0.621007 0.070424 0.500000 
163 1 0.631230 0.053499 0.500000 
164 1 0.640902 0.070887 0.500000 
165 1 0.651117 0.053960 0.500000 
166 1 0.660790 0.071328 0.500000 
167 1 0.671006 0.054396 0.500000 
168 1 0.680671 0.071751 0.500000 
169 1 0.690897 0.054806 0.500000 
170 1 0.700549 0.072149 0.500000 
171 1 0.710789 0.055192 0.500000 
172 1 0.720436 0.072522 0.500000 
173 1 0.730685 0.055554 0.500000 
174 1 0.740344 0.072868 0.500000 
175 1 0.750586 0.055894 0.500000 
176 1 0.760267 0.073187 0.500000 
177 1 0.770490 0.056213 0.500000 
178 1 0.780192 0.073477 0.500000 
179 1 0.790400 0.056511 0.500000 
180 1 0.800109 0.073738 0.500000 
181 1 0.810316 0.056789 0.500000 
182 1 0.820017 0.073979 0.500000 
183 1 0.830238 0.057049 0.500000 
184 1 0.839929 0.074208 0.500000 
185 1 0.850164 0.057294 0.500000 
186 1 0.859858 0.074433 0.500000 
187 1 0.870095 0.057522 0.500000 
188 1 0.879801 0.074659 0.500000 
189 1 0.890032 0.057734 0.500000 
190 1 0.899750 0.074867 0.500000 
191 1 0.909975 0.057934 0.500000 
192 1 0.919708 0.075044 0.500000 
193 1 0.929922 0.058120 0.500000 
194 1 0.939670 0.075219 0.500000 
195 1 0.949875 0.058294 0.500000 
196 1 0.959621 0.075390 0.500000 
197 1 0.969833 0.058458 0.500000 
198 1 0.979588 0.075542 0.500000 
199 1 0.989796 0.058613 0.500000 
200 1 0.999557 0.075685 0.500000 
201 1 0.011275 0.067077 0.500000 
202 1 0.020924 0.084144 0.500000 
203 1 0.031308 0.067688 0.500000 
204 1 0.040959 0.084763 0.500000 
205 1 0.051342 0.068307 0.500000 
206 1 0.060994 0.085390 0.500000 
207 1 0.071376 0.068936 0.500000 
208 1 0.081049 0.086036 0.500000 
209 1 0.091453 0.069594 0.500000 
210 1 0.101118 0.086722 0.500000 
211 1 0.111517 0.070272 0.500000 
212 1 0.121186 0.087421 0.500000 
213 1 0.131556 0.070936 0.500000 
214 1 0.141228 0.088104 0.500000 
215 1 0.151579 0.071611 0.500000 
216 1 0.161253 0.088798 0.500000 
217 1 0.171591 0.072307 0.500000 
218 1 0.181271 0.089515 0.500000 
219 1 0.191596 0.073022 0.500000 
220 1 0.201293 0.090247 0.500000 
221 1 0.211607 0.073741 0.500000 
222 1 0.221330 0.090976 0.500000 
223 1 0.231634 0.074447 0.500000 
224 1 0.241378 0.091699 0.500000 
225 1 0.251677 0.075147 0.500000 
226 1 0.261424 0.092429 0.500000 
227 1 0.271722 0.075862 0.500000 
228 1 0.281458 0.093176 0.500000 
229 1 0.291758 0.076602 0.500000 
230 1 0.301471 0.093937 0.500000 
231 1 0.311777 0.077360 0.500000 
232 1 0.321466 0.094703 0.500000 
233 1 0.331775 0.078123 0.500000 
234 1 0.341448 0.095469 0.500000 
235 1 0.351750 0.078884 0.500000 
236 1 0.361429 0.096226 0.500000 
237 1 0.371714 0.079634 0.500000 
238 1 0.381416 0.096970 0.500000 
239 1 0.391681 0.080362 0.500000 
240 1 0.401396 0.097708 0.500000 
241 1 0.411651 0.081066 0.500000 
242 1 0.421358 0.098447 0.500000 
243 1 0.431607 0.081764 0.500000 
244 1 0.441300 0.099179 0.500000 
245 1 0.451543 0.082463 0.500000 
246 1 0.461227 0.099894 0.500000 
247 1 0.471473 0.083149 0.500000 
248 1 0.481141 0.100589 0.500000 
249 1 0.491394 0.083815 0.500000 
250 1 0.501047 0.101258 0.500000 
251 1 0.511300 0.084460 0.500000 
252 1 0.520950 0.101895 0.500000 
253 1 0.531197 0.085084 0.500000 
254 1 0.540848 0.102508 0.500000 
255 1 0.551094 0.085682 0.500000 
256 1 0.560734 0.103104 0.500000 
257 1 0.570985 0.086260 0.500000 
258 1 0.580616 0.103674 0.500000 
259 1 0.590869 0.086812 0.500000 
260 1 0.600501 0.104215 0.500000 
261 1 0.610755 0.087330 0.500000 
262 1 0.620384 0.104732 0.500000 
263 1 0.630642 0.087817 0.500000 
264 1 0.640272 0.105214 0.500000 
265 1 0.650533 0.088277 0.500000 
266 1 0.660170 0.105660 0.500000 
267 1 0.670431 0.088712 0.500000 
268 1 0.680081 0.106075 0.500000 
269 1 0.690330 0.089118 0.500000 
270 1 0.699993 0.106454 0.500000 
271 1 0.710224 0.089487 0.500000 
272 1 0.719892 0.106790 0.500000 
273 1 0.730119 0.089821 0.500000 
274 1 0.739779 0.107087 0.500000 
275 1 0.750025 0.090135 0.500000 
276 1 0.759674 0.107365 0.500000 
277 1 0.769946 0.090431 0.500000 
278 1 0.779596 0.107639 0.500000 
279 1 0.789876 0.090704 0.500000 
280 1 0.799542 0.107906 0.500000 
281 1 0.809803 0.090950 0.500000 
282 1 0.819494 0.108149 0.500000 
283 1 0.829722 0.091168 0.500000 
284 1 0.839436 0.108354 0.500000 
285 1 0.849642 0.091369 0.500000 
286 1 0.859365 0.108541 0.500000 
287 1 0.869572 0.091580 0.500000 
288 1 0.879288 0.108737 0.500000 
289 1 0.889512 0.091795 0.500000 
290 1 0.899230 0.108913 0.500000 
291 1 0.909468 0.091974 0.500000 
292 1 0.919196 0.109063 0.500000 
293 1 0.929438 0.092138 0.500000 
294 1 0.939173 0.109241 0.500000 
295 1 0.949407 0.092323 0.500000 
296 1 0.959160 0.109410 0.500000 
297 1 0.969375 0.092475 0.500000 
298 1 0.979136 0.109550 0.500000 
299 1 0.989349 0.092617 0.500000 
300 1 0.999117 0.109681 0.500000 
301 1 0.010532 0.100598 0.500000 
302 1 0.020165 0.117663 0.500000 
303 1 0.030566 0.101214 0.500000 
304 1 0.040201 0.118287 0.500000 
305 1 0.050602 0.101839 0.500000 
306 1 0.060239 0.118920 0.500000 
307 1 0.070640 0.102476 0.500000 
308 1 0.080298 0.119585 0.500000 
309 1 0.090703 0.103151 0.500000 
310 1 0.100340 0.120269 0.500000 
311 1 0.110768 0.103857 0.500000 
312 1 0.120389 0.121000 0.500000 
313 1 0.130822 0.104575 0.500000 
314 1 0.140438 0.121746 0.500000 
315 1 0.150858 0.105281 0.500000 
316 1 0.160484 0.122485 0.500000 
317 1 0.170895 0.106003 0.500000 
318 1 0.180543 0.123226 0.500000 
319 1 0.190944 0.106739 0.500000 
320 1 0.200617 0.123964 0.500000 
321 1 0.211007 0.107479 0.500000 
322 1 0.220692 0.124700 0.500000 
323 1 0.231071 0.108218 0.500000 
324 1 0.240752 0.125446 0.500000 
325 1 0.251122 0.108961 0.500000 
326 1 0.260791 0.126210 0.500000 
327 1 0.271152 0.109717 0.500000 
328 1 0.280815 0.126998 0.500000 
329 1 0.291160 0.110488 0.500000 
330 1 0.300831 0.127802 0.500000 
331 1 0.311151 0.111267 0.500000 
332 1 0.320841 0.128605 0.500000 
333 1 0.331139 0.112045 0.500000 
334 1 0.340846 0.129397 0.500000 
335 1 0.351134 0.112813 0.500000 
336 1 0.360845 0.130179 0.500000 
337 1 0.371132 0.113576 0.500000 
338 1 0.380833 0.130959 0.500000 
339 1 0.391122 0.114339 0.500000 
340 1 0.400803 0.131743 0.500000 
341 1 0.411094 0.115105 0.500000 
342 1 0.420747 0.132527 0.500000 
343 1 0.431044 0.115862 0.500000 
344 1 0.440670 0.133296 0.500000 
345 1 0.450971 0.116605 0.500000 
346 1 0.460589 0.134034 0.500000 
347 1 0.470882 0.117324 0.500000 
348 1 0.480515 0.134735 0.500000 
349 1 0.490793 0.118010 0.500000 
350 1 0.500433 0.135418 0.500000 
351 1 0.510704 0.118668 0.500000 
352 1 0.520335 0.136092 0.500000 
353 1 0.530601 0.119311 0.500000 
354 1 0.540232 0.136736 0.500000 
355 1 0.550488 0.119933 0.500000 
356 1 0.560132 0.137346 0.500000 
357 1 0.570376 0.120523 0.500000 
358 1 0.580026 0.137936 0.500000 
359 1 0.590263 0.121086 0.500000 
360 1 0.599911 0.138494 0.500000 
361 1 0.610145 0.121623 0.500000 
362 1 0.619792 0.139006 0.500000 
363 1 0.630027 0.122123 0.500000 
364 1 0.639667 0.139474 0.500000 
365 1 0.649911 0.122579 0.500000 
366 1 0.659543 0.139901 0.500000 
367 1 0.669804 0.122998 0.500000 
368 1 0.679435 0.140290 0.500000 
369 1 0.689717 0.123389 0.500000 
370 1 0.699353 0.140665 0.500000 
371 1 0.709641 0.123753 0.500000 
372 1 0.719291 0.141025 0.500000 
373 1 0.729552 0.124072 0.500000 
374 1 0.739222 0.141335 0.500000 
375 1 0.749442 0.124339 0.500000 
376 1 0.759125 0.141578 0.500000 
377 1 0.769331 0.124578 0.500000 
378 1 0.779018 0.141784 0.500000 
379 1 0.789249 0.124827 0.500000 
380 1 0.798934 0.142008 0.500000 
381 1 0.809203 0.125089 0.500000 
382 1 0.818890 0.142256 0.500000 
383 1 0.829174 0.125331 0.500000 
384 1 0.838873 0.142494 0.500000 
385 1 0.849137 0.125535 0.500000 
386 1 0.858854 0.142704 0.500000 
387 1 0.869081 0.125718 0.500000 
388 1 0.878828 0.142864 0.500000 
389 1 0.889029 0.125874 0.500000 
390 1 0.898809 0.142974 0.500000 
391 1 0.908997 0.126004 0.500000 
392 1 0.918780 0.143104 0.500000 
393 1 0.928967 0.126159 0.500000 
394 1 0.938740 0.143264 0.500000 
395 1 0.948940 0.126349 0.500000 
396 1 0.958701 0.143428 0.500000 
397 1 0.968919 0.126487 0.500000 
398 1 0.978689 0.143555 0.500000 
399 1 0.988905 0.126616 0.500000 
400 1 0.998682 0.143674 0.500000 
401 1 0.009754 0.134110 0.500000 
402 1 0.019367 0.151171 0.500000 
403 1 0.029790 0.134729 0.500000 
404 1 0.039403 0.151799 0.500000 
405 1 0.049825 0.135360 0.500000 
406 1 0.059442 0.152437 0.500000 
407 1 0.069865 0.136003 0.500000 
408 1 0.079466 0.153101 0.500000 
409 1 0.089906 0.136694 0.500000 
410 1 0.099521 0.153826 0.500000 
411 1 0.109945 0.137402 0.500000 
412 1 0.119573 0.154571 0.500000 
413 1 0.130007 0.138170 0.500000 
414 1 0.139639 0.155363 0.500000 
415 1 0.150067 0.138945 0.500000 
416 1 0.159693 0.156139 0.500000 
417 1 0.170122 0.139700 0.500000 
418 1 0.179747 0.156883 0.500000 
419 1 0.190188 0.140438 0.500000 
420 1 0.199818 0.157617 0.500000 
421 1 0.210261 0.141168 0.500000 
422 1 0.219906 0.158366 0.500000 
423 1 0.230332 0.141910 0.500000 
424 1 0.239989 0.159142 0.500000 
425 1 0.250392 0.142679 0.500000 
426 1 0.260052 0.159951 0.500000 
427 1 0.270441 0.143481 0.500000 
428 1 0.280095 0.160780 0.500000 
429 1 0.290480 0.144303 0.500000 
430 1 0.300134 0.161611 0.500000 
431 1 0.310511 0.145127 0.500000 
432 1 0.320165 0.162434 0.500000 
433 1 0.330530 0.145938 0.500000 
434 1 0.340175 0.163256 0.500000 
435 1 0.350534 0.146735 0.500000 
436 1 0.360146 0.164088 0.500000 
437 1 0.370515 0.147537 0.500000 
438 1 0.380079 0.164941 0.500000 
439 1 0.390466 0.148349 0.500000 
440 1 0.399988 0.165804 0.500000 
441 1 0.410391 0.149171 0.500000 
442 1 0.419900 0.166642 0.500000 
443 1 0.430307 0.149976 0.500000 
444 1 0.439833 0.167435 0.500000 
445 1 0.450234 0.150740 0.500000 
446 1 0.459763 0.168204 0.500000 
447 1 0.470167 0.151472 0.500000 
448 1 0.479667 0.168975 0.500000 
449 1 0.490083 0.152194 0.500000 
450 1 0.499570 0.169711 0.500000 
451 1 0.509988 0.152897 0.500000 
452 1 0.519488 0.170393 0.500000 
453 1 0.529901 0.153557 0.500000 
454 1 0.539399 0.171050 0.500000 
455 1 0.549815 0.154183 0.500000 
456 1 0.559303 0.171670 0.500000 
457 1 0.569717 0.154785 0.500000 
458 1 0.579218 0.172230 0.500000 
459 1 0.589619 0.155350 0.500000 
460 1 0.599139 0.172756 0.500000 
461 1 0.609519 0.155875 0.500000 
462 1 0.619056 0.173263 0.500000 
463 1 0.629404 0.156366 0.500000 
464 1 0.638969 0.173727 0.500000 
465 1 0.649280 0.156808 0.500000 
466 1 0.658865 0.174145 0.500000 
467 1 0.669158 0.157201 0.500000 
468 1 0.678748 0.174507 0.500000 
469 1 0.689050 0.157563 0.500000 
470 1 0.698639 0.174821 0.500000 
471 1 0.708974 0.157915 0.500000 
472 1 0.718563 0.175129 0.500000 
473 1 0.728928 0.158260 0.500000 
474 1 0.738534 0.175444 0.500000 
475 1 0.748888 0.158562 0.500000 
476 1 0.758532 0.175739 0.500000 
477 1 0.768828 0.158793 0.500000 
478 1 0.778525 0.175977 0.500000 
479 1 0.788751 0.158983 0.500000 
480 1 0.798497 0.176169 0.500000 
481 1 0.808683 0.159185 0.500000 
482 1 0.818455 0.176357 0.500000 
483 1 0.828640 0.159413 0.500000 
484 1 0.838408 0.176576 0.500000 
485 1 0.848614 0.159649 0.500000 
486 1 0.858366 0.176800 0.500000 
487 1 0.868596 0.159847 0.500000 
488 1 0.878343 0.176957 0.500000 
489 1 0.888589 0.159968 0.500000 
490 1 0.898327 0.177070 0.500000 
491 1 0.908569 0.160080 0.500000 
492 1 0.918299 0.177193 0.500000 
493 1 0.928529 0.160217 0.500000 
494 1 0.938267 0.177323 0.500000 
495 1 0.948477 0.160370 0.500000 
496 1 0.958249 0.177440 0.500000 
497 1 0.968470 0.160496 0.500000 
498 1 0.978251 0.177553 0.500000 
499 1 0.988467 0.160611 0.500000 
500 1 0.998258 0.177659 0.500000 
501 1 0.008938 0.167610 0.500000 
502 1 0.018532 0.184668 0.500000 
503 1 0.028972 0.168234 0.500000 
504 1 0.038566 0.185299 0.500000 
505 1 0.049008 0.168868 0.500000 
506 1 0.058602 0.185942 0.500000 
507 1 0.069047 0.169517 0.500000 
508 1 0.078658 0.186648 0.500000 
509 1 0.089091 0.170235 0.500000 
510 1 0.098689 0.187398 0.500000 
511 1 0.109139 0.170995 0.500000 
512 1 0.118728 0.188154 0.500000 
513 1 0.129183 0.171753 0.500000 
514 1 0.138788 0.188908 0.500000 
515 1 0.149247 0.172537 0.500000 
516 1 0.158887 0.189679 0.500000 
517 1 0.169314 0.173293 0.500000 
518 1 0.178985 0.190435 0.500000 
519 1 0.189397 0.174039 0.500000 
520 1 0.199065 0.191211 0.500000 
521 1 0.209489 0.174802 0.500000 
522 1 0.219125 0.192011 0.500000 
523 1 0.229574 0.175591 0.500000 
524 1 0.239183 0.192829 0.500000 
525 1 0.249634 0.176404 0.500000 
526 1 0.259240 0.193660 0.500000 
527 1 0.269679 0.177234 0.500000 
528 1 0.279284 0.194516 0.500000 
529 1 0.289719 0.178070 0.500000 
530 1 0.299306 0.195395 0.500000 
531 1 0.309753 0.178918 0.500000 
532 1 0.319315 0.196284 0.500000 
533 1 0.329760 0.179772 0.500000 
534 1 0.339308 0.197185 0.500000 
535 1 0.349734 0.180641 0.500000 
536 1 0.359259 0.198115 0.500000 
537 1 0.369670 0.181532 0.500000 
538 1 0.379190 0.199052 0.500000 
539 1 0.389578 0.182431 0.500000 
540 1 0.399138 0.199934 0.500000 
541 1 0.409500 0.183294 0.500000 
542 1 0.419090 0.200786 0.500000 
543 1 0.429442 0.184110 0.500000 
544 1 0.439005 0.201658 0.500000 
545 1 0.449363 0.184928 0.500000 
546 1 0.458913 0.202498 0.500000 
547 1 0.469259 0.185742 0.500000 
548 1 0.478838 0.203261 0.500000 
549 1 0.489170 0.186491 0.500000 
550 1 0.498744 0.203998 0.500000 
551 1 0.509084 0.187193 0.500000 
552 1 0.518632 0.204714 0.500000 
553 1 0.528977 0.187883 0.500000 
554 1 0.538541 0.205357 0.500000 
555 1 0.548879 0.188531 0.500000 
556 1 0.558460 0.205970 0.500000 
557 1 0.568799 0.189124 0.500000 
558 1 0.578369 0.206576 0.500000 
559 1 0.588711 0.189677 0.500000 
560 1 0.598277 0.207107 0.500000 
561 1 0.608632 0.190181 0.500000 
562 1 0.618189 0.207573 0.500000 
563 1 0.628577 0.190648 0.500000 
564 1 0.638131 0.208019 0.500000 
565 1 0.648522 0.191095 0.500000 
566 1 0.658111 0.208436 0.500000 
567 1 0.668453 0.191486 0.500000 
568 1 0.678078 0.208810 0.500000 
569 1 0.688354 0.191804 0.500000 
570 1 0.698003 0.209091 0.500000 
571 1 0.708239 0.192061 0.500000 
572 1 0.717895 0.209286 0.500000 
573 1 0.728157 0.192306 0.500000 
574 1 0.737806 0.209474 0.500000 
575 1 0.748134 0.192590 0.500000 
576 1 0.757781 0.209726 0.500000 
577 1 0.768159 0.192885 0.500000 
578 1 0.777801 0.210024 0.500000 
579 1 0.788186 0.193137 0.500000 
580 1 0.797828 0.210279 0.500000 
581 1 0.808193 0.193333 0.500000 
582 1 0.817843 0.210480 0.500000 
583 1 0.828175 0.193523 0.500000 
584 1 0.837843 0.210679 0.500000 
585 1 0.848142 0.193741 0.500000 
586 1 0.857841 0.210868 0.500000 
587 1 0.868111 0.193925 0.500000 
588 1 0.877838 0.211016 0.500000 
589 1 0.888084 0.194054 0.500000 
590 1 0.897814 0.211155 0.500000 
591 1 0.908051 0.194176 0.500000 
592 1 0.917787 0.211272 0.500000 
593 1 0.928027 0.194291 0.500000 
594 1 0.937778 0.211364 0.500000 
595 1 0.948021 0.194385 0.500000 
596 1 0.957807 0.211443 0.500000 
597 1 0.968031 0.194496 0.500000 
598 1 0.977825 0.211543 0.500000 
599 1 0.988043 0.194599 0.500000 
600 1 0.997847 0.211634 0.500000 
601 1 0.008083 0.201103 0.500000 
602 1 0.017654 0.218157 0.500000 
603 1 0.028113 0.201727 0.500000 
604 1 0.037684 0.218790 0.500000 
605 1 0.048147 0.202367 0.500000 
606 1 0.057718 0.219436 0.500000 
607 1 0.068185 0.203017 0.500000 
608 1 0.077804 0.220163 0.500000 
609 1 0.088245 0.203783 0.500000 
610 1 0.097842 0.220909 0.500000 
611 1 0.108290 0.204540 0.500000 
612 1 0.117903 0.221669 0.500000 
613 1 0.128345 0.205288 0.500000 
614 1 0.137978 0.222412 0.500000 
615 1 0.148441 0.206044 0.500000 
616 1 0.158072 0.223179 0.500000 
617 1 0.168547 0.206817 0.500000 
618 1 0.178154 0.223961 0.500000 
619 1 0.188614 0.207594 0.500000 
620 1 0.198222 0.224765 0.500000 
621 1 0.208663 0.208397 0.500000 
622 1 0.218282 0.225603 0.500000 
623 1 0.228726 0.209222 0.500000 
624 1 0.238331 0.226480 0.500000 
625 1 0.248793 0.210071 0.500000 
626 1 0.258371 0.227366 0.500000 
627 1 0.268836 0.210950 0.500000 
628 1 0.278431 0.228263 0.500000 
629 1 0.288857 0.211847 0.500000 
630 1 0.298489 0.229180 0.500000 
631 1 0.308888 0.212757 0.500000 
632 1 0.318514 0.230170 0.500000 
633 1 0.328901 0.213693 0.500000 
634 1 0.338505 0.231200 0.500000 
635 1 0.348873 0.214679 0.500000 
636 1 0.358499 0.232203 0.500000 
637 1 0.368833 0.215649 0.500000 
638 1 0.378487 0.233153 0.500000 
639 1 0.388809 0.216564 0.500000 
640 1 0.398444 0.234085 0.500000 
641 1 0.408760 0.217463 0.500000 
642 1 0.418385 0.235002 0.500000 
643 1 0.428680 0.218363 0.500000 
644 1 0.438323 0.235871 0.500000 
645 1 0.448612 0.219210 0.500000 
646 1 0.458249 0.236721 0.500000 
647 1 0.468543 0.220004 0.500000 
648 1 0.478157 0.237571 0.500000 
649 1 0.488440 0.220801 0.500000 
650 1 0.498068 0.238372 0.500000 
651 1 0.508338 0.221556 0.500000 
652 1 0.517976 0.239103 0.500000 
653 1 0.528258 0.222234 0.500000 
654 1 0.537872 0.239803 0.500000 
655 1 0.548162 0.222869 0.500000 
656 1 0.557775 0.240417 0.500000 
657 1 0.568069 0.223457 0.500000 
658 1 0.577688 0.240942 0.500000 
659 1 0.588003 0.224005 0.500000 
660 1 0.597617 0.241467 0.500000 
661 1 0.607910 0.224524 0.500000 
662 1 0.617558 0.241946 0.500000 
663 1 0.627800 0.224960 0.500000 
664 1 0.637457 0.242343 0.500000 
665 1 0.647729 0.225345 0.500000 
666 1 0.657350 0.242684 0.500000 
667 1 0.667705 0.225746 0.500000 
668 1 0.677303 0.243022 0.500000 
669 1 0.687697 0.226103 0.500000 
670 1 0.697283 0.243366 0.500000 
671 1 0.707648 0.226359 0.500000 
672 1 0.717254 0.243597 0.500000 
673 1 0.727563 0.226506 0.500000 
674 1 0.737197 0.243713 0.500000 
675 1 0.747490 0.226646 0.500000 
676 1 0.757153 0.243818 0.500000 
677 1 0.767466 0.226873 0.500000 
678 1 0.777144 0.244016 0.500000 
679 1 0.787476 0.227155 0.500000 
680 1 0.797160 0.244276 0.500000 
681 1 0.807492 0.227408 0.500000 
682 1 0.817177 0.244528 0.500000 
683 1 0.827504 0.227617 0.500000 
684 1 0.837198 0.244732 0.500000 
685 1 0.847517 0.227801 0.500000 
686 1 0.857230 0.244883 0.500000 
687 1 0.867536 0.227952 0.500000 
688 1 0.877250 0.245037 0.500000 
689 1 0.887541 0.228105 0.500000 
690 1 0.897264 0.245195 0.500000 
691 1 0.907540 0.228244 0.500000 
692 1 0.917287 0.245322 0.500000 
693 1 0.927544 0.228352 0.500000 
694 1 0.937337 0.245378 0.500000 
695 1 0.947580 0.228392 0.500000 
696 1 0.957383 0.245436 0.500000 
697 1 0.967605 0.228489 0.500000 
698 1 0.977417 0.245522 0.500000 
699 1 0.987634 0.228577 0.500000 
700 1 0.997455 0.245600 0.500000 
701 1 0.007189 0.234587 0.500000 
702 1 0.016737 0.251640 0.500000 
703 1 0.027214 0.235215 0.500000 
704 1 0.036760 0.252274 0.500000 
705 1 0.047243 0.235854 0.500000 
706 1 0.056787 0.252921 0.500000 
707 1 0.067275 0.236508 0.500000 
708 1 0.076835 0.253634 0.500000 
709 1 0.087356 0.237298 0.500000 
710 1 0.096959 0.254404 0.500000 
711 1 0.107432 0.238026 0.500000 
712 1 0.117062 0.255137 0.500000 
713 1 0.127528 0.238785 0.500000 
714 1 0.137130 0.255884 0.500000 
715 1 0.147598 0.239525 0.500000 
716 1 0.157180 0.256647 0.500000 
717 1 0.167687 0.240312 0.500000 
718 1 0.177252 0.257493 0.500000 
719 1 0.187769 0.241129 0.500000 
720 1 0.197301 0.258365 0.500000 
721 1 0.207813 0.241989 0.500000 
722 1 0.217348 0.259239 0.500000 
723 1 0.227839 0.242874 0.500000 
724 1 0.237438 0.260114 0.500000 
725 1 0.247901 0.243757 0.500000 
726 1 0.257547 0.261007 0.500000 
727 1 0.268003 0.244640 0.500000 
728 1 0.277637 0.261976 0.500000 
729 1 0.288086 0.245585 0.500000 
730 1 0.297685 0.263007 0.500000 
731 1 0.308116 0.246608 0.500000 
732 1 0.317718 0.264072 0.500000 
733 1 0.328129 0.247667 0.500000 
734 1 0.337743 0.265111 0.500000 
735 1 0.348146 0.248694 0.500000 
736 1 0.357777 0.266122 0.500000 
737 1 0.368149 0.249671 0.500000 
738 1 0.377785 0.267118 0.500000 
739 1 0.388134 0.250632 0.500000 
740 1 0.397756 0.268138 0.500000 
741 1 0.408092 0.251580 0.500000 
742 1 0.417720 0.269134 0.500000 
743 1 0.428035 0.252513 0.500000 
744 1 0.437689 0.270092 0.500000 
745 1 0.447973 0.253424 0.500000 
746 1 0.457621 0.271043 0.500000 
747 1 0.467897 0.254324 0.500000 
748 1 0.477533 0.271939 0.500000 
749 1 0.487808 0.255174 0.500000 
750 1 0.497450 0.272748 0.500000 
751 1 0.507714 0.255949 0.500000 
752 1 0.517350 0.273526 0.500000 
753 1 0.527605 0.256666 0.500000 
754 1 0.537240 0.274206 0.500000 
755 1 0.547506 0.257317 0.500000 
756 1 0.557131 0.274808 0.500000 
757 1 0.567408 0.257915 0.500000 
758 1 0.577035 0.275377 0.500000 
759 1 0.587301 0.258435 0.500000 
760 1 0.596941 0.275859 0.500000 
761 1 0.607244 0.258897 0.500000 
762 1 0.616860 0.276325 0.500000 
763 1 0.627207 0.259368 0.500000 
764 1 0.636845 0.276757 0.500000 
765 1 0.647140 0.259740 0.500000 
766 1 0.656802 0.277114 0.500000 
767 1 0.667038 0.260015 0.500000 
768 1 0.676720 0.277343 0.500000 
769 1 0.686953 0.260301 0.500000 
770 1 0.696652 0.277552 0.500000 
771 1 0.706918 0.260590 0.500000 
772 1 0.716621 0.277805 0.500000 
773 1 0.726884 0.260813 0.500000 
774 1 0.736592 0.277997 0.500000 
775 1 0.746845 0.260903 0.500000 
776 1 0.756542 0.278086 0.500000 
777 1 0.766813 0.260983 0.500000 
778 1 0.776516 0.278125 0.500000 
779 1 0.786821 0.261139 0.500000 
780 1 0.796534 0.278261 0.500000 
781 1 0.806847 0.261388 0.500000 
782 1 0.816572 0.278494 0.500000 
783 1 0.826872 0.261635 0.500000 
784 1 0.836607 0.278716 0.500000 
785 1 0.846911 0.261810 0.500000 
786 1 0.856656 0.278873 0.500000 
787 1 0.866958 0.261957 0.500000 
788 1 0.876709 0.279044 0.500000 
789 1 0.886997 0.262131 0.500000 
790 1 0.896776 0.279214 0.500000 
791 1 0.907041 0.262282 0.500000 
792 1 0.916852 0.279332 0.500000 
793 1 0.927096 0.262359 0.500000 
794 1 0.936926 0.279370 0.500000 
795 1 0.947159 0.262387 0.500000 
796 1 0.956982 0.279417 0.500000 
797 1 0.967200 0.262468 0.500000 
798 1 0.977036 0.279488 0.500000 
799 1 0.987245 0.262544 0.500000 
800 1 0.997089 0.279555 0.500000 
801 1 0.006256 0.268068 0.500000 
802 1 0.015779 0.285121 0.500000 
803 1 0.026272 0.268696 0.500000 
804 1 0.035792 0.285753 0.500000 
805 1 0.046292 0.269335 0.500000 
806 1 0.055810 0.286400 0.500000 
807 1 0.066319 0.269991 0.500000 
808 1 0.075851 0.287097 0.500000 
809 1 0.086418 0.270750 0.500000 
810 1 0.095963 0.287853 0.500000 
811 1 0.106530 0.271500 0.500000 
812 1 0.116063 0.288575 0.500000 
813 1 0.126612 0.272232 0.500000 
814 1 0.136136 0.289357 0.500000 
815 1 0.146657 0.273001 0.500000 
816 1 0.156185 0.290181 0.500000 
817 1 0.166709 0.273838 0.500000 
818 1 0.176242 0.291040 0.500000 
819 1 0.186783 0.274716 0.500000 
820 1 0.196313 0.291910 0.500000 
821 1 0.206863 0.275578 0.500000 
822 1 0.216388 0.292796 0.500000 
823 1 0.226947 0.276451 0.500000 
824 1 0.236472 0.293714 0.500000 
825 1 0.247035 0.277377 0.500000 
826 1 0.256578 0.294670 0.500000 
827 1 0.267122 0.278336 0.500000 
828 1 0.276669 0.295681 0.500000 
829 1 0.287201 0.279365 0.500000 
830 1 0.296721 0.296755 0.500000 
831 1 0.307242 0.280421 0.500000 
832 1 0.316769 0.297831 0.500000 
833 1 0.327282 0.281489 0.500000 
834 1 0.336820 0.298903 0.500000 
835 1 0.347328 0.282526 0.500000 
836 1 0.356851 0.300008 0.500000 
837 1 0.367351 0.283584 0.500000 
838 1 0.376867 0.301103 0.500000 
839 1 0.387341 0.284659 0.500000 
840 1 0.396881 0.302146 0.500000 
841 1 0.407340 0.285686 0.500000 
842 1 0.416853 0.303193 0.500000 
843 1 0.427324 0.286680 0.500000 
844 1 0.436807 0.304255 0.500000 
845 1 0.447256 0.287690 0.500000 
846 1 0.456793 0.305265 0.500000 
847 1 0.467202 0.288635 0.500000 
848 1 0.476745 0.306274 0.500000 
849 1 0.487147 0.289524 0.500000 
850 1 0.496644 0.307272 0.500000 
851 1 0.507043 0.290400 0.500000 
852 1 0.516549 0.308087 0.500000 
853 1 0.526944 0.291159 0.500000 
854 1 0.536454 0.308801 0.500000 
855 1 0.546839 0.291809 0.500000 
856 1 0.556375 0.309402 0.500000 
857 1 0.566730 0.292346 0.500000 
858 1 0.576292 0.309880 0.500000 
859 1 0.586646 0.292827 0.500000 
860 1 0.596222 0.310301 0.500000 
861 1 0.606561 0.293280 0.500000 
862 1 0.616184 0.310649 0.500000 
863 1 0.626508 0.293685 0.500000 
864 1 0.636159 0.311042 0.500000 
865 1 0.646479 0.294134 0.500000 
866 1 0.656186 0.311444 0.500000 
867 1 0.666441 0.294455 0.500000 
868 1 0.676145 0.311790 0.500000 
869 1 0.686357 0.294641 0.500000 
870 1 0.696052 0.311915 0.500000 
871 1 0.706316 0.294785 0.500000 
872 1 0.715995 0.312014 0.500000 
873 1 0.726334 0.294992 0.500000 
874 1 0.736044 0.312167 0.500000 
875 1 0.746326 0.295179 0.500000 
876 1 0.756062 0.312340 0.500000 
877 1 0.766270 0.295245 0.500000 
878 1 0.776020 0.312383 0.500000 
879 1 0.786246 0.295265 0.500000 
880 1 0.795999 0.312401 0.500000 
881 1 0.806279 0.295381 0.500000 