ITEM: TIMESTEP
1800
ITEM: NUMBER OF ATOMS
2850
ITEM: BOX BOUNDS ss ss pp
-28.0536 28.3253 
-28.9988 28.9984 
-0.5 0.5 
ITEM: ATOMS id type xs ys zs
1 1 0.012661 0.000000 0.500000 
2 1 0.022340 0.017073 0.500000 
3 1 0.032688 0.000597 0.500000 
4 1 0.042369 0.017677 0.500000 
5 1 0.052715 0.001202 0.500000 
6 1 0.062397 0.018289 0.500000 
7 1 0.072742 0.001814 0.500000 
8 1 0.082426 0.018911 0.500000 
9 1 0.092767 0.002433 0.500000 
10 1 0.102455 0.019539 0.500000 
11 1 0.112794 0.003060 0.500000 
12 1 0.122484 0.020177 0.500000 
13 1 0.132817 0.003697 0.500000 
14 1 0.142511 0.020822 0.500000 
15 1 0.152841 0.004338 0.500000 
16 1 0.162536 0.021475 0.500000 
17 1 0.172861 0.004988 0.500000 
18 1 0.182559 0.022136 0.500000 
19 1 0.192879 0.005643 0.500000 
20 1 0.202579 0.022803 0.500000 
21 1 0.212895 0.006305 0.500000 
22 1 0.222596 0.023475 0.500000 
23 1 0.232906 0.006973 0.500000 
24 1 0.242610 0.024155 0.500000 
25 1 0.252912 0.007645 0.500000 
26 1 0.262618 0.024839 0.500000 
27 1 0.272914 0.008319 0.500000 
28 1 0.282622 0.025527 0.500000 
29 1 0.292911 0.008997 0.500000 
30 1 0.302619 0.026217 0.500000 
31 1 0.312901 0.009676 0.500000 
32 1 0.322610 0.026908 0.500000 
33 1 0.332885 0.010356 0.500000 
34 1 0.342593 0.027600 0.500000 
35 1 0.352861 0.011033 0.500000 
36 1 0.362570 0.028289 0.500000 
37 1 0.372830 0.011707 0.500000 
38 1 0.382537 0.028974 0.500000 
39 1 0.392791 0.012376 0.500000 
40 1 0.402497 0.029655 0.500000 
41 1 0.412744 0.013039 0.500000 
42 1 0.422448 0.030326 0.500000 
43 1 0.432688 0.013694 0.500000 
44 1 0.442390 0.030989 0.500000 
45 1 0.452624 0.014337 0.500000 
46 1 0.462324 0.031639 0.500000 
47 1 0.472553 0.014968 0.500000 
48 1 0.482250 0.032276 0.500000 
49 1 0.492474 0.015584 0.500000 
50 1 0.502167 0.032896 0.500000 
51 1 0.512388 0.016184 0.500000 
52 1 0.522078 0.033498 0.500000 
53 1 0.532295 0.016766 0.500000 
54 1 0.541983 0.034081 0.500000 
55 1 0.552198 0.017330 0.500000 
56 1 0.561882 0.034643 0.500000 
57 1 0.572095 0.017873 0.500000 
58 1 0.581777 0.035184 0.500000 
59 1 0.591989 0.018396 0.500000 
60 1 0.601668 0.035702 0.500000 
61 1 0.611880 0.018896 0.500000 
62 1 0.621558 0.036195 0.500000 
63 1 0.631769 0.019373 0.500000 
64 1 0.641446 0.036666 0.500000 
65 1 0.651657 0.019829 0.500000 
66 1 0.661334 0.037110 0.500000 
67 1 0.671546 0.020261 0.500000 
68 1 0.681223 0.037533 0.500000 
69 1 0.691436 0.020670 0.500000 
70 1 0.701115 0.037931 0.500000 
71 1 0.711328 0.021058 0.500000 
72 1 0.721007 0.038307 0.500000 
73 1 0.731222 0.021423 0.500000 
74 1 0.740905 0.038660 0.500000 
75 1 0.751120 0.021768 0.500000 
76 1 0.760806 0.038993 0.500000 
77 1 0.771021 0.022094 0.500000 
78 1 0.780711 0.039305 0.500000 
79 1 0.790927 0.022399 0.500000 
80 1 0.800620 0.039597 0.500000 
81 1 0.810837 0.022687 0.500000 
82 1 0.820536 0.039873 0.500000 
83 1 0.830751 0.022958 0.500000 
84 1 0.840456 0.040130 0.500000 
85 1 0.850671 0.023211 0.500000 
86 1 0.860382 0.040369 0.500000 
87 1 0.870595 0.023449 0.500000 
88 1 0.880312 0.040595 0.500000 
89 1 0.890525 0.023674 0.500000 
90 1 0.900248 0.040807 0.500000 
91 1 0.910459 0.023884 0.500000 
92 1 0.920188 0.041005 0.500000 
93 1 0.930398 0.024080 0.500000 
94 1 0.940134 0.041192 0.500000 
95 1 0.950341 0.024267 0.500000 
96 1 0.960084 0.041368 0.500000 
97 1 0.970290 0.024443 0.500000 
98 1 0.980040 0.041531 0.500000 
99 1 0.990243 0.024606 0.500000 
100 1 1.000000 0.041686 0.500000 
101 1 0.011983 0.033545 0.500000 
102 1 0.021650 0.050615 0.500000 
103 1 0.032014 0.034148 0.500000 
104 1 0.041680 0.051227 0.500000 
105 1 0.052044 0.034760 0.500000 
106 1 0.061715 0.051847 0.500000 
107 1 0.072075 0.035381 0.500000 
108 1 0.081727 0.052482 0.500000 
109 1 0.092107 0.036012 0.500000 
110 1 0.101756 0.053132 0.500000 
111 1 0.112138 0.036650 0.500000 
112 1 0.121799 0.053757 0.500000 
113 1 0.132168 0.037297 0.500000 
114 1 0.141851 0.054431 0.500000 
115 1 0.152197 0.037952 0.500000 
116 1 0.161869 0.055118 0.500000 
117 1 0.172226 0.038617 0.500000 
118 1 0.181894 0.055791 0.500000 
119 1 0.192251 0.039288 0.500000 
120 1 0.201934 0.056482 0.500000 
121 1 0.212274 0.039967 0.500000 
122 1 0.221943 0.057170 0.500000 
123 1 0.232293 0.040654 0.500000 
124 1 0.241948 0.057846 0.500000 
125 1 0.252309 0.041345 0.500000 
126 1 0.261961 0.058563 0.500000 
127 1 0.272318 0.042042 0.500000 
128 1 0.281976 0.059296 0.500000 
129 1 0.292324 0.042743 0.500000 
130 1 0.301981 0.060009 0.500000 
131 1 0.312323 0.043447 0.500000 
132 1 0.321976 0.060708 0.500000 
133 1 0.332314 0.044150 0.500000 
134 1 0.341962 0.061391 0.500000 
135 1 0.352297 0.044856 0.500000 
136 1 0.361952 0.062133 0.500000 
137 1 0.372273 0.045557 0.500000 
138 1 0.381925 0.062831 0.500000 
139 1 0.392240 0.046254 0.500000 
140 1 0.401879 0.063505 0.500000 
141 1 0.412198 0.046944 0.500000 
142 1 0.421827 0.064230 0.500000 
143 1 0.432147 0.047626 0.500000 
144 1 0.441755 0.064972 0.500000 
145 1 0.452087 0.048297 0.500000 
146 1 0.461689 0.065607 0.500000 
147 1 0.472018 0.048954 0.500000 
148 1 0.481610 0.066256 0.500000 
149 1 0.491940 0.049595 0.500000 
150 1 0.501519 0.066911 0.500000 
151 1 0.511855 0.050220 0.500000 
152 1 0.521439 0.067504 0.500000 
153 1 0.531762 0.050823 0.500000 
154 1 0.541346 0.068071 0.500000 
155 1 0.551663 0.051406 0.500000 
156 1 0.561256 0.068665 0.500000 
157 1 0.571560 0.051966 0.500000 
158 1 0.581147 0.069212 0.500000 
159 1 0.591452 0.052503 0.500000 
160 1 0.601033 0.069734 0.500000 
161 1 0.611341 0.053013 0.500000 
162 1 0.620925 0.070256 0.500000 
163 1 0.631230 0.053499 0.500000 
164 1 0.640838 0.070738 0.500000 
165 1 0.651117 0.053960 0.500000 
166 1 0.660745 0.071186 0.500000 
167 1 0.671006 0.054396 0.500000 
168 1 0.680629 0.071608 0.500000 
169 1 0.690897 0.054806 0.500000 
170 1 0.700519 0.071988 0.500000 
171 1 0.710789 0.055192 0.500000 
172 1 0.720440 0.072344 0.500000 
173 1 0.730685 0.055554 0.500000 
174 1 0.740346 0.072697 0.500000 
175 1 0.750586 0.055894 0.500000 
176 1 0.760241 0.073032 0.500000 
177 1 0.770490 0.056213 0.500000 
178 1 0.780159 0.073337 0.500000 
179 1 0.790400 0.056511 0.500000 
180 1 0.800087 0.073649 0.500000 
181 1 0.810316 0.056789 0.500000 
182 1 0.820022 0.073910 0.500000 
183 1 0.830238 0.057049 0.500000 
184 1 0.839962 0.074163 0.500000 
185 1 0.850164 0.057294 0.500000 
186 1 0.859896 0.074391 0.500000 
187 1 0.870095 0.057522 0.500000 
188 1 0.879844 0.074607 0.500000 
189 1 0.890032 0.057734 0.500000 
190 1 0.899804 0.074837 0.500000 
191 1 0.909975 0.057934 0.500000 
192 1 0.919751 0.075047 0.500000 
193 1 0.929922 0.058120 0.500000 
194 1 0.939681 0.075222 0.500000 
195 1 0.949875 0.058294 0.500000 
196 1 0.959621 0.075390 0.500000 
197 1 0.969833 0.058458 0.500000 
198 1 0.979588 0.075542 0.500000 
199 1 0.989796 0.058613 0.500000 
200 1 0.999557 0.075685 0.500000 
201 1 0.011275 0.067077 0.500000 
202 1 0.020924 0.084144 0.500000 
203 1 0.031308 0.067688 0.500000 
204 1 0.040959 0.084763 0.500000 
205 1 0.051342 0.068307 0.500000 
206 1 0.060994 0.085390 0.500000 
207 1 0.071376 0.068936 0.500000 
208 1 0.081027 0.086041 0.500000 
209 1 0.091401 0.069590 0.500000 
210 1 0.101057 0.086693 0.500000 
211 1 0.111439 0.070235 0.500000 
212 1 0.121099 0.087340 0.500000 
213 1 0.131468 0.070881 0.500000 
214 1 0.141145 0.088008 0.500000 
215 1 0.151502 0.071578 0.500000 
216 1 0.161181 0.088711 0.500000 
217 1 0.171533 0.072261 0.500000 
218 1 0.181201 0.089423 0.500000 
219 1 0.191574 0.072963 0.500000 
220 1 0.201231 0.090165 0.500000 
221 1 0.211600 0.073693 0.500000 
222 1 0.221267 0.090882 0.500000 
223 1 0.231617 0.074377 0.500000 
224 1 0.241266 0.091610 0.500000 
225 1 0.251612 0.075093 0.500000 
226 1 0.261271 0.092331 0.500000 
227 1 0.271600 0.075811 0.500000 
228 1 0.281267 0.093035 0.500000 
229 1 0.291622 0.076520 0.500000 
230 1 0.301263 0.093754 0.500000 
231 1 0.311640 0.077242 0.500000 
232 1 0.321257 0.094509 0.500000 
233 1 0.331602 0.077947 0.500000 
234 1 0.341227 0.095234 0.500000 
235 1 0.351562 0.078665 0.500000 
236 1 0.361198 0.095962 0.500000 
237 1 0.371568 0.079412 0.500000 
238 1 0.381175 0.096713 0.500000 
239 1 0.391547 0.080123 0.500000 
240 1 0.401131 0.097458 0.500000 
241 1 0.411477 0.080829 0.500000 
242 1 0.421074 0.098160 0.500000 
243 1 0.431408 0.081565 0.500000 
244 1 0.441031 0.098854 0.500000 
245 1 0.451370 0.082250 0.500000 
246 1 0.460965 0.099538 0.500000 
247 1 0.471310 0.082912 0.500000 
248 1 0.480881 0.100239 0.500000 
249 1 0.491213 0.083593 0.500000 
250 1 0.500827 0.100865 0.500000 
251 1 0.511159 0.084205 0.500000 
252 1 0.520755 0.101508 0.500000 
253 1 0.531077 0.084810 0.500000 
254 1 0.540672 0.102116 0.500000 
255 1 0.550967 0.085385 0.500000 
256 1 0.560571 0.102675 0.500000 
257 1 0.570876 0.085937 0.500000 
258 1 0.580465 0.103195 0.500000 
259 1 0.590782 0.086462 0.500000 
260 1 0.600362 0.103754 0.500000 
261 1 0.610674 0.087014 0.500000 
262 1 0.620268 0.104269 0.500000 
263 1 0.630587 0.087494 0.500000 
264 1 0.640165 0.104733 0.500000 
265 1 0.650498 0.087956 0.500000 
266 1 0.660081 0.105169 0.500000 
267 1 0.670395 0.088390 0.500000 
268 1 0.679999 0.105572 0.500000 
269 1 0.690296 0.088786 0.500000 
270 1 0.699934 0.105951 0.500000 
271 1 0.710202 0.089140 0.500000 
272 1 0.719859 0.106310 0.500000 
273 1 0.730112 0.089514 0.500000 
274 1 0.739787 0.106682 0.500000 
275 1 0.750028 0.089859 0.500000 
276 1 0.759722 0.107015 0.500000 
277 1 0.769952 0.090170 0.500000 
278 1 0.779657 0.107311 0.500000 
279 1 0.789872 0.090482 0.500000 
280 1 0.799583 0.107602 0.500000 
281 1 0.809813 0.090767 0.500000 
282 1 0.819523 0.107880 0.500000 
283 1 0.829754 0.091025 0.500000 
284 1 0.839480 0.108134 0.500000 
285 1 0.849700 0.091273 0.500000 
286 1 0.859440 0.108370 0.500000 
287 1 0.869638 0.091487 0.500000 
288 1 0.879379 0.108595 0.500000 
289 1 0.889575 0.091700 0.500000 
290 1 0.899318 0.108799 0.500000 
291 1 0.909533 0.091922 0.500000 
292 1 0.919260 0.109016 0.500000 
293 1 0.929481 0.092147 0.500000 
294 1 0.939213 0.109242 0.500000 
295 1 0.949407 0.092323 0.500000 
296 1 0.959160 0.109410 0.500000 
297 1 0.969375 0.092475 0.500000 
298 1 0.979136 0.109550 0.500000 
299 1 0.989349 0.092617 0.500000 
300 1 0.999117 0.109681 0.500000 
301 1 0.010532 0.100598 0.500000 
302 1 0.020165 0.117663 0.500000 
303 1 0.030566 0.101214 0.500000 
304 1 0.040201 0.118287 0.500000 
305 1 0.050602 0.101839 0.500000 
306 1 0.060239 0.118920 0.500000 
307 1 0.070640 0.102476 0.500000 
308 1 0.080309 0.119581 0.500000 
309 1 0.090717 0.103151 0.500000 
310 1 0.100362 0.120244 0.500000 
311 1 0.110756 0.103800 0.500000 
312 1 0.120405 0.120932 0.500000 
313 1 0.130780 0.104465 0.500000 
314 1 0.140451 0.121613 0.500000 
315 1 0.150816 0.105151 0.500000 
316 1 0.160500 0.122305 0.500000 
317 1 0.170855 0.105878 0.500000 
318 1 0.180520 0.123056 0.500000 
319 1 0.190875 0.106621 0.500000 
320 1 0.200557 0.123778 0.500000 
321 1 0.210913 0.107333 0.500000 
322 1 0.220565 0.124525 0.500000 
323 1 0.230923 0.108080 0.500000 
324 1 0.240555 0.125281 0.500000 
325 1 0.250936 0.108817 0.500000 
326 1 0.260563 0.126047 0.500000 
327 1 0.270933 0.109565 0.500000 
328 1 0.280561 0.126845 0.500000 
329 1 0.290911 0.110309 0.500000 
330 1 0.300551 0.127606 0.500000 
331 1 0.310896 0.111056 0.500000 
332 1 0.320554 0.128314 0.500000 
333 1 0.330901 0.111785 0.500000 
334 1 0.340534 0.129069 0.500000 
335 1 0.350887 0.112529 0.500000 
336 1 0.360515 0.129824 0.500000 
337 1 0.370842 0.113279 0.500000 
338 1 0.380472 0.130594 0.500000 
339 1 0.390783 0.114033 0.500000 
340 1 0.400444 0.131307 0.500000 
341 1 0.410754 0.114756 0.500000 
342 1 0.420419 0.132036 0.500000 
343 1 0.430715 0.115447 0.500000 
344 1 0.440339 0.132808 0.500000 
345 1 0.450644 0.116185 0.500000 
346 1 0.460285 0.133533 0.500000 
347 1 0.470575 0.116875 0.500000 
348 1 0.480215 0.134192 0.500000 
349 1 0.490525 0.117515 0.500000 
350 1 0.500120 0.134879 0.500000 
351 1 0.510439 0.118186 0.500000 
352 1 0.520055 0.135520 0.500000 
353 1 0.530352 0.118798 0.500000 
354 1 0.539975 0.136127 0.500000 
355 1 0.550268 0.119404 0.500000 
356 1 0.559887 0.136724 0.500000 
357 1 0.570175 0.119967 0.500000 
358 1 0.579818 0.137265 0.500000 
359 1 0.590067 0.120479 0.500000 
360 1 0.599719 0.137792 0.500000 
361 1 0.609974 0.121024 0.500000 
362 1 0.619626 0.138310 0.500000 
363 1 0.629878 0.121529 0.500000 
364 1 0.639552 0.138780 0.500000 
365 1 0.649791 0.121976 0.500000 
366 1 0.659486 0.139195 0.500000 
367 1 0.669722 0.122389 0.500000 
368 1 0.679422 0.139571 0.500000 
369 1 0.689662 0.122754 0.500000 
370 1 0.699351 0.139933 0.500000 
371 1 0.709614 0.123130 0.500000 
372 1 0.719309 0.140294 0.500000 
373 1 0.729547 0.123468 0.500000 
374 1 0.739246 0.140644 0.500000 
375 1 0.749488 0.123828 0.500000 
376 1 0.759195 0.140974 0.500000 
377 1 0.769436 0.124145 0.500000 
378 1 0.779132 0.141289 0.500000 
379 1 0.789367 0.124439 0.500000 
380 1 0.799066 0.141567 0.500000 
381 1 0.809292 0.124722 0.500000 
382 1 0.819007 0.141854 0.500000 
383 1 0.829231 0.124998 0.500000 
384 1 0.838958 0.142106 0.500000 
385 1 0.849202 0.125231 0.500000 
386 1 0.858912 0.142333 0.500000 
387 1 0.869168 0.125467 0.500000 
388 1 0.878865 0.142576 0.500000 
389 1 0.889117 0.125698 0.500000 
390 1 0.898814 0.142822 0.500000 
391 1 0.909065 0.125923 0.500000 
392 1 0.918768 0.143057 0.500000 
393 1 0.929005 0.126136 0.500000 
394 1 0.938733 0.143259 0.500000 
395 1 0.948940 0.126349 0.500000 
396 1 0.958701 0.143428 0.500000 
397 1 0.968919 0.126487 0.500000 
398 1 0.978689 0.143555 0.500000 
399 1 0.988905 0.126616 0.500000 
400 1 0.998682 0.143674 0.500000 
401 1 0.009754 0.134110 0.500000 
402 1 0.019367 0.151171 0.500000 
403 1 0.029790 0.134729 0.500000 
404 1 0.039403 0.151799 0.500000 
405 1 0.049825 0.135360 0.500000 
406 1 0.059442 0.152437 0.500000 
407 1 0.069865 0.136003 0.500000 
408 1 0.079511 0.153102 0.500000 
409 1 0.089922 0.136670 0.500000 
410 1 0.099553 0.153766 0.500000 
411 1 0.109980 0.137347 0.500000 
412 1 0.119608 0.154444 0.500000 
413 1 0.130059 0.138054 0.500000 
414 1 0.139679 0.155154 0.500000 
415 1 0.150104 0.138737 0.500000 
416 1 0.159711 0.155871 0.500000 
417 1 0.170116 0.139473 0.500000 
418 1 0.179746 0.156627 0.500000 
419 1 0.190134 0.140195 0.500000 
420 1 0.199761 0.157398 0.500000 
421 1 0.210167 0.140968 0.500000 
422 1 0.219795 0.158193 0.500000 
423 1 0.230197 0.141756 0.500000 
424 1 0.239840 0.158989 0.500000 
425 1 0.250211 0.142515 0.500000 
426 1 0.259843 0.159785 0.500000 
427 1 0.270200 0.143316 0.500000 
428 1 0.279845 0.160568 0.500000 
429 1 0.290200 0.144109 0.500000 
430 1 0.299856 0.161345 0.500000 
431 1 0.310198 0.144850 0.500000 
432 1 0.319857 0.162128 0.500000 
433 1 0.330169 0.145600 0.500000 
434 1 0.339839 0.162911 0.500000 
435 1 0.350153 0.146354 0.500000 
436 1 0.359826 0.163662 0.500000 
437 1 0.370137 0.147132 0.500000 
438 1 0.379833 0.164425 0.500000 
439 1 0.390145 0.147867 0.500000 
440 1 0.399807 0.165203 0.500000 
441 1 0.410124 0.148613 0.500000 
442 1 0.419754 0.166002 0.500000 
443 1 0.430050 0.149410 0.500000 
444 1 0.439717 0.166738 0.500000 
445 1 0.449982 0.150128 0.500000 
446 1 0.459624 0.167478 0.500000 
447 1 0.469907 0.150853 0.500000 
448 1 0.479510 0.168206 0.500000 
449 1 0.489795 0.151565 0.500000 
450 1 0.499452 0.168884 0.500000 
451 1 0.509715 0.152205 0.500000 
452 1 0.519361 0.169539 0.500000 
453 1 0.529643 0.152841 0.500000 
454 1 0.539282 0.170167 0.500000 
455 1 0.549568 0.153463 0.500000 
456 1 0.559220 0.170755 0.500000 
457 1 0.569501 0.154007 0.500000 
458 1 0.579142 0.171322 0.500000 
459 1 0.589417 0.154574 0.500000 
460 1 0.599059 0.171876 0.500000 
461 1 0.609324 0.155100 0.500000 
462 1 0.618970 0.172372 0.500000 
463 1 0.629236 0.155564 0.500000 
464 1 0.638894 0.172815 0.500000 
465 1 0.649170 0.155992 0.500000 
466 1 0.658858 0.173201 0.500000 
467 1 0.669138 0.156381 0.500000 
468 1 0.678833 0.173597 0.500000 
469 1 0.689091 0.156767 0.500000 
470 1 0.698792 0.173957 0.500000 
471 1 0.709035 0.157108 0.500000 
472 1 0.718724 0.174318 0.500000 
473 1 0.728976 0.157481 0.500000 
474 1 0.738672 0.174667 0.500000 
475 1 0.748923 0.157809 0.500000 
476 1 0.758621 0.174982 0.500000 
477 1 0.768872 0.158147 0.500000 
478 1 0.778591 0.175300 0.500000 
479 1 0.788840 0.158435 0.500000 
480 1 0.798552 0.175594 0.500000 
481 1 0.808800 0.158705 0.500000 
482 1 0.818517 0.175844 0.500000 
483 1 0.828766 0.158979 0.500000 
484 1 0.838496 0.176105 0.500000 
485 1 0.848728 0.159220 0.500000 
486 1 0.858469 0.176349 0.500000 
487 1 0.868671 0.159455 0.500000 
488 1 0.878434 0.176598 0.500000 
489 1 0.888614 0.159704 0.500000 
490 1 0.898369 0.176837 0.500000 
491 1 0.908568 0.159955 0.500000 
492 1 0.918311 0.177076 0.500000 
493 1 0.928525 0.160165 0.500000 
494 1 0.938252 0.177286 0.500000 
495 1 0.948477 0.160370 0.500000 
496 1 0.958249 0.177440 0.500000 
497 1 0.968470 0.160496 0.500000 
498 1 0.978251 0.177553 0.500000 
499 1 0.988467 0.160611 0.500000 
500 1 0.998258 0.177659 0.500000 
501 1 0.008938 0.167610 0.500000 
502 1 0.018532 0.184668 0.500000 
503 1 0.028972 0.168234 0.500000 
504 1 0.038566 0.185299 0.500000 
505 1 0.049008 0.168868 0.500000 
506 1 0.058602 0.185942 0.500000 
507 1 0.069047 0.169517 0.500000 
508 1 0.078645 0.186604 0.500000 
509 1 0.089122 0.170198 0.500000 
510 1 0.098734 0.187286 0.500000 
511 1 0.109190 0.170861 0.500000 
512 1 0.118794 0.187979 0.500000 
513 1 0.129247 0.171554 0.500000 
514 1 0.138860 0.188691 0.500000 
515 1 0.149306 0.172277 0.500000 
516 1 0.158910 0.189440 0.500000 
517 1 0.169343 0.173026 0.500000 
518 1 0.178940 0.190222 0.500000 
519 1 0.189379 0.173830 0.500000 
520 1 0.198971 0.191045 0.500000 
521 1 0.209395 0.174625 0.500000 
522 1 0.218994 0.191834 0.500000 
523 1 0.229419 0.175421 0.500000 
524 1 0.239037 0.192643 0.500000 
525 1 0.249445 0.176238 0.500000 
526 1 0.259071 0.193473 0.500000 
527 1 0.269469 0.177025 0.500000 
528 1 0.279103 0.194281 0.500000 
529 1 0.289495 0.177810 0.500000 
530 1 0.299129 0.195084 0.500000 
531 1 0.309506 0.178608 0.500000 
532 1 0.319149 0.195893 0.500000 
533 1 0.329511 0.179417 0.500000 
534 1 0.339163 0.196697 0.500000 
535 1 0.349525 0.180200 0.500000 
536 1 0.359156 0.197483 0.500000 
537 1 0.369509 0.180957 0.500000 
538 1 0.379119 0.198297 0.500000 
539 1 0.389479 0.181770 0.500000 
540 1 0.399098 0.199116 0.500000 
541 1 0.409435 0.182584 0.500000 
542 1 0.419069 0.199935 0.500000 
543 1 0.429396 0.183338 0.500000 
544 1 0.438976 0.200774 0.500000 
545 1 0.449324 0.184140 0.500000 
546 1 0.458912 0.201558 0.500000 
547 1 0.469227 0.184898 0.500000 
548 1 0.478868 0.202277 0.500000 
549 1 0.489141 0.185555 0.500000 
550 1 0.498780 0.202994 0.500000 
551 1 0.509072 0.186260 0.500000 
552 1 0.518719 0.203635 0.500000 
553 1 0.529017 0.186890 0.500000 
554 1 0.538650 0.204257 0.500000 
555 1 0.548962 0.187511 0.500000 
556 1 0.558580 0.204868 0.500000 
557 1 0.568885 0.188096 0.500000 
558 1 0.578514 0.205445 0.500000 
559 1 0.588798 0.188650 0.500000 
560 1 0.598413 0.205978 0.500000 
561 1 0.608713 0.189190 0.500000 
562 1 0.618340 0.206480 0.500000 
563 1 0.628628 0.189653 0.500000 
564 1 0.638272 0.206906 0.500000 
565 1 0.648577 0.190045 0.500000 
566 1 0.658208 0.207277 0.500000 
567 1 0.668543 0.190426 0.500000 
568 1 0.678166 0.207628 0.500000 
569 1 0.688516 0.190809 0.500000 
570 1 0.698137 0.208010 0.500000 
571 1 0.708462 0.191165 0.500000 
572 1 0.718089 0.208368 0.500000 
573 1 0.728410 0.191510 0.500000 
574 1 0.738053 0.208692 0.500000 
575 1 0.748383 0.191856 0.500000 
576 1 0.758043 0.209046 0.500000 
577 1 0.768336 0.192163 0.500000 
578 1 0.778017 0.209357 0.500000 
579 1 0.788290 0.192468 0.500000 
580 1 0.797986 0.209626 0.500000 
581 1 0.808247 0.192742 0.500000 
582 1 0.817951 0.209908 0.500000 
583 1 0.828200 0.193001 0.500000 
584 1 0.837932 0.210137 0.500000 
585 1 0.848185 0.193239 0.500000 
586 1 0.857911 0.210401 0.500000 
587 1 0.868154 0.193491 0.500000 
588 1 0.877880 0.210636 0.500000 
589 1 0.888122 0.193744 0.500000 
590 1 0.897855 0.210866 0.500000 
591 1 0.908084 0.193955 0.500000 
592 1 0.917833 0.211077 0.500000 
593 1 0.928047 0.194193 0.500000 
594 1 0.937818 0.211275 0.500000 
595 1 0.948021 0.194385 0.500000 
596 1 0.957807 0.211443 0.500000 
597 1 0.968031 0.194496 0.500000 
598 1 0.977825 0.211543 0.500000 
599 1 0.988043 0.194599 0.500000 
600 1 0.997847 0.211634 0.500000 
601 1 0.008083 0.201103 0.500000 
602 1 0.017654 0.218157 0.500000 
603 1 0.028113 0.201727 0.500000 
604 1 0.037684 0.218790 0.500000 
605 1 0.048147 0.202367 0.500000 
606 1 0.057718 0.219436 0.500000 
607 1 0.068185 0.203017 0.500000 
608 1 0.077762 0.220100 0.500000 
609 1 0.088253 0.203694 0.500000 
610 1 0.097843 0.220800 0.500000 
611 1 0.108335 0.204397 0.500000 
612 1 0.117917 0.221499 0.500000 
613 1 0.128414 0.205099 0.500000 
614 1 0.137972 0.222240 0.500000 
615 1 0.148471 0.205866 0.500000 
616 1 0.158026 0.223045 0.500000 
617 1 0.168485 0.206637 0.500000 
618 1 0.178080 0.223828 0.500000 
619 1 0.188514 0.207426 0.500000 
620 1 0.198132 0.224641 0.500000 
621 1 0.208578 0.208250 0.500000 
622 1 0.218195 0.225487 0.500000 
623 1 0.228616 0.209047 0.500000 
624 1 0.238248 0.226304 0.500000 
625 1 0.248648 0.209887 0.500000 
626 1 0.258287 0.227159 0.500000 
627 1 0.268698 0.210724 0.500000 
628 1 0.278330 0.228001 0.500000 
629 1 0.288767 0.211574 0.500000 
630 1 0.298398 0.228850 0.500000 
631 1 0.308803 0.212390 0.500000 
632 1 0.318415 0.229713 0.500000 
633 1 0.328796 0.213204 0.500000 
634 1 0.338425 0.230550 0.500000 
635 1 0.348791 0.214023 0.500000 
636 1 0.358428 0.231372 0.500000 
637 1 0.368774 0.214833 0.500000 
638 1 0.378424 0.232196 0.500000 
639 1 0.388778 0.215648 0.500000 
640 1 0.398380 0.233062 0.500000 
641 1 0.408744 0.216497 0.500000 
642 1 0.418301 0.233968 0.500000 
643 1 0.428658 0.217396 0.500000 
644 1 0.438279 0.234790 0.500000 
645 1 0.448614 0.218184 0.500000 
646 1 0.458227 0.235600 0.500000 
647 1 0.468568 0.218938 0.500000 
648 1 0.478133 0.236384 0.500000 
649 1 0.488483 0.219713 0.500000 
650 1 0.498085 0.237061 0.500000 
651 1 0.508430 0.220358 0.500000 
652 1 0.518002 0.237733 0.500000 
653 1 0.528357 0.221011 0.500000 
654 1 0.537932 0.238370 0.500000 
655 1 0.548269 0.221631 0.500000 
656 1 0.557863 0.238948 0.500000 
657 1 0.568205 0.222203 0.500000 
658 1 0.577778 0.239556 0.500000 
659 1 0.588128 0.222798 0.500000 
660 1 0.597737 0.240078 0.500000 
661 1 0.608051 0.223269 0.500000 
662 1 0.617668 0.240547 0.500000 
663 1 0.627982 0.223735 0.500000 
664 1 0.637628 0.240973 0.500000 
665 1 0.647928 0.224132 0.500000 
666 1 0.657570 0.241367 0.500000 
667 1 0.667867 0.224492 0.500000 
668 1 0.677520 0.241726 0.500000 
669 1 0.687805 0.224846 0.500000 
670 1 0.697482 0.242074 0.500000 
671 1 0.707773 0.225218 0.500000 
672 1 0.717455 0.242431 0.500000 
673 1 0.727739 0.225567 0.500000 
674 1 0.737431 0.242783 0.500000 
675 1 0.747691 0.225905 0.500000 
676 1 0.757429 0.243080 0.500000 
677 1 0.767683 0.226220 0.500000 
678 1 0.777420 0.243396 0.500000 
679 1 0.787691 0.226509 0.500000 
680 1 0.797408 0.243682 0.500000 
681 1 0.807695 0.226803 0.500000 
682 1 0.817393 0.243967 0.500000 
683 1 0.827687 0.227053 0.500000 
684 1 0.837386 0.244207 0.500000 
685 1 0.847648 0.227289 0.500000 
686 1 0.857371 0.244445 0.500000 
687 1 0.867617 0.227539 0.500000 
688 1 0.877346 0.244651 0.500000 
689 1 0.887598 0.227753 0.500000 
690 1 0.897325 0.244879 0.500000 
691 1 0.907600 0.227987 0.500000 
692 1 0.917372 0.245089 0.500000 
693 1 0.927597 0.228183 0.500000 
694 1 0.937385 0.245295 0.500000 
695 1 0.947580 0.228392 0.500000 
696 1 0.957383 0.245436 0.500000 
697 1 0.967605 0.228489 0.500000 
698 1 0.977417 0.245522 0.500000 
699 1 0.987634 0.228577 0.500000 
700 1 0.997455 0.245600 0.500000 
701 1 0.007189 0.234587 0.500000 
702 1 0.016737 0.251640 0.500000 
703 1 0.027214 0.235215 0.500000 
704 1 0.036760 0.252274 0.500000 
705 1 0.047243 0.235854 0.500000 
706 1 0.056787 0.252921 0.500000 
707 1 0.067275 0.236508 0.500000 
708 1 0.076856 0.253588 0.500000 
709 1 0.087345 0.237190 0.500000 
710 1 0.096920 0.254304 0.500000 
711 1 0.107412 0.237908 0.500000 
712 1 0.116987 0.255023 0.500000 
713 1 0.127479 0.238618 0.500000 
714 1 0.137023 0.255772 0.500000 
715 1 0.147535 0.239397 0.500000 
716 1 0.157062 0.256566 0.500000 
717 1 0.167596 0.240209 0.500000 
718 1 0.177142 0.257386 0.500000 
719 1 0.187654 0.241037 0.500000 
720 1 0.197213 0.258265 0.500000 
721 1 0.207707 0.241894 0.500000 
722 1 0.217296 0.259108 0.500000 
723 1 0.227783 0.242720 0.500000 
724 1 0.237348 0.259972 0.500000 
725 1 0.247835 0.243584 0.500000 
726 1 0.257415 0.260842 0.500000 
727 1 0.267887 0.244435 0.500000 
728 1 0.277485 0.261683 0.500000 
729 1 0.287943 0.245264 0.500000 
730 1 0.297539 0.262561 0.500000 
731 1 0.307973 0.246142 0.500000 
732 1 0.317584 0.263408 0.500000 
733 1 0.328024 0.247003 0.500000 
734 1 0.337632 0.264296 0.500000 
735 1 0.348061 0.247877 0.500000 
736 1 0.357656 0.265239 0.500000 
737 1 0.368036 0.248722 0.500000 
738 1 0.377641 0.266140 0.500000 
739 1 0.388000 0.249602 0.500000 
740 1 0.397586 0.267068 0.500000 
741 1 0.407944 0.250541 0.500000 
742 1 0.417564 0.267961 0.500000 
743 1 0.427900 0.251375 0.500000 
744 1 0.437492 0.268865 0.500000 
745 1 0.447846 0.252239 0.500000 
746 1 0.457413 0.269742 0.500000 
747 1 0.467772 0.253063 0.500000 
748 1 0.477365 0.270458 0.500000 
749 1 0.487729 0.253760 0.500000 
750 1 0.497285 0.271212 0.500000 
751 1 0.507648 0.254475 0.500000 
752 1 0.517228 0.271891 0.500000 
753 1 0.527575 0.255117 0.500000 
754 1 0.537160 0.272538 0.500000 
755 1 0.547516 0.255734 0.500000 
756 1 0.557095 0.273142 0.500000 
757 1 0.567433 0.256316 0.500000 
758 1 0.577023 0.273670 0.500000 
759 1 0.587377 0.256849 0.500000 
760 1 0.596956 0.274195 0.500000 
761 1 0.607322 0.257386 0.500000 
762 1 0.616926 0.274659 0.500000 
763 1 0.627280 0.257805 0.500000 
764 1 0.636881 0.275093 0.500000 
765 1 0.647241 0.258244 0.500000 
766 1 0.656869 0.275496 0.500000 
767 1 0.667195 0.258609 0.500000 
768 1 0.676829 0.275860 0.500000 
769 1 0.687142 0.258961 0.500000 
770 1 0.696811 0.276183 0.500000 
771 1 0.707107 0.259298 0.500000 
772 1 0.716820 0.276499 0.500000 
773 1 0.727104 0.259652 0.500000 
774 1 0.736844 0.276852 0.500000 
775 1 0.747135 0.259967 0.500000 
776 1 0.756864 0.277171 0.500000 
777 1 0.767151 0.260270 0.500000 
778 1 0.776881 0.277443 0.500000 
779 1 0.787172 0.260580 0.500000 
780 1 0.796905 0.277759 0.500000 
781 1 0.807146 0.260871 0.500000 
782 1 0.816923 0.278014 0.500000 
783 1 0.827144 0.261107 0.500000 
784 1 0.836930 0.278283 0.500000 
785 1 0.847146 0.261358 0.500000 
786 1 0.856927 0.278499 0.500000 
787 1 0.867172 0.261591 0.500000 
788 1 0.876945 0.278734 0.500000 
789 1 0.887144 0.261791 0.500000 
790 1 0.896944 0.278916 0.500000 
791 1 0.907109 0.261985 0.500000 
792 1 0.916937 0.279082 0.500000 
793 1 0.927123 0.262191 0.500000 
794 1 0.936945 0.279288 0.500000 
795 1 0.947159 0.262387 0.500000 
796 1 0.956982 0.279417 0.500000 
797 1 0.967200 0.262468 0.500000 
798 1 0.977036 0.279488 0.500000 
799 1 0.987245 0.262544 0.500000 
800 1 0.997089 0.279555 0.500000 
801 1 0.006256 0.268068 0.500000 
802 1 0.015779 0.285121 0.500000 
803 1 0.026272 0.268696 0.500000 
804 1 0.035792 0.285753 0.500000 
805 1 0.046292 0.269335 0.500000 
806 1 0.055810 0.286400 0.500000 
807 1 0.066319 0.269991 0.500000 
808 1 0.075855 0.287077 0.500000 
809 1 0.086376 0.270686 0.500000 
810 1 0.095901 0.287791 0.500000 
811 1 0.106432 0.271409 0.500000 
812 1 0.115949 0.288531 0.500000 
813 1 0.126492 0.272161 0.500000 
814 1 0.135999 0.289308 0.500000 
815 1 0.146542 0.272946 0.500000 
816 1 0.156090 0.290081 0.500000 
817 1 0.166617 0.273722 0.500000 
818 1 0.176169 0.290920 0.500000 
819 1 0.186689 0.274582 0.500000 
820 1 0.196251 0.291780 0.500000 
821 1 0.206793 0.275452 0.500000 
822 1 0.216348 0.292655 0.500000 
823 1 0.226877 0.276338 0.500000 
824 1 0.236425 0.293554 0.500000 
825 1 0.246933 0.277205 0.500000 
826 1 0.256505 0.294431 0.500000 
827 1 0.267010 0.278080 0.500000 
828 1 0.276586 0.295325 0.500000 
829 1 0.287084 0.278955 0.500000 
830 1 0.296652 0.296245 0.500000 
831 1 0.307149 0.279850 0.500000 
832 1 0.316709 0.297169 0.500000 
833 1 0.327181 0.280728 0.500000 
834 1 0.336738 0.298127 0.500000 
835 1 0.347200 0.281689 0.500000 
836 1 0.356770 0.299099 0.500000 
837 1 0.367228 0.282648 0.500000 
838 1 0.376788 0.300082 0.500000 
839 1 0.387226 0.283591 0.500000 
840 1 0.396784 0.301052 0.500000 
841 1 0.407204 0.284508 0.500000 
842 1 0.416706 0.302047 0.500000 
843 1 0.427121 0.285476 0.500000 
844 1 0.436655 0.303003 0.500000 
845 1 0.447041 0.286388 0.500000 
846 1 0.456622 0.303852 0.500000 
847 1 0.467001 0.287157 0.500000 
848 1 0.476510 0.304705 0.500000 
849 1 0.486912 0.287962 0.500000 
850 1 0.496457 0.305415 0.500000 
851 1 0.506848 0.288652 0.500000 
852 1 0.516382 0.306145 0.500000 
853 1 0.526757 0.289328 0.500000 
854 1 0.536301 0.306749 0.500000 
855 1 0.546690 0.289950 0.500000 
856 1 0.556254 0.307347 0.500000 
857 1 0.566631 0.290530 0.500000 
858 1 0.576232 0.307894 0.500000 
859 1 0.586581 0.291034 0.500000 
860 1 0.596197 0.308356 0.500000 
861 1 0.606563 0.291494 0.500000 
862 1 0.616161 0.308821 0.500000 
863 1 0.626520 0.291960 0.500000 
864 1 0.636149 0.309244 0.500000 
865 1 0.646493 0.292350 0.500000 
866 1 0.656146 0.309629 0.500000 
867 1 0.666497 0.292751 0.500000 
868 1 0.676160 0.309974 0.500000 
869 1 0.686517 0.293089 0.500000 
870 1 0.696187 0.310303 0.500000 
871 1 0.706532 0.293396 0.500000 
872 1 0.716210 0.310623 0.500000 
873 1 0.726550 0.293711 0.500000 
874 1 0.736229 0.310929 0.500000 
875 1 0.746592 0.294051 0.500000 
876 1 0.756279 0.311242 0.500000 
877 1 0.766610 0.294356 0.500000 
878 1 0.776316 0.311547 0.500000 
879 1 0.786610 0.294633 0.500000 
880 1 0.796359 0.311815 0.500000 
881 1 0.806641 0.294916 0.500000 