ITEM: TIMESTEP
0
ITEM: NUMBER OF ATOMS
2850
ITEM: BOX BOUNDS ss ss pp
-28.0536 28.3253 
-28.9988 28.9984 
-0.5 0.5 
ITEM: ATOMS id type xs ys zs
1 1 0.012661 0.000000 0.500000 
2 1 0.022340 0.017073 0.500000 
3 1 0.032688 0.000597 0.500000 
4 1 0.042369 0.017677 0.500000 
5 1 0.052715 0.001202 0.500000 
6 1 0.062397 0.018289 0.500000 
7 1 0.072742 0.001814 0.500000 
8 1 0.082426 0.018911 0.500000 
9 1 0.092767 0.002433 0.500000 
10 1 0.102455 0.019539 0.500000 
11 1 0.112794 0.003060 0.500000 
12 1 0.122484 0.020177 0.500000 
13 1 0.132817 0.003697 0.500000 
14 1 0.142511 0.020822 0.500000 
15 1 0.152841 0.004338 0.500000 
16 1 0.162536 0.021475 0.500000 
17 1 0.172861 0.004988 0.500000 
18 1 0.182559 0.022136 0.500000 
19 1 0.192879 0.005643 0.500000 
20 1 0.202579 0.022803 0.500000 
21 1 0.212895 0.006305 0.500000 
22 1 0.222596 0.023475 0.500000 
23 1 0.232906 0.006973 0.500000 
24 1 0.242610 0.024155 0.500000 
25 1 0.252912 0.007645 0.500000 
26 1 0.262618 0.024839 0.500000 
27 1 0.272914 0.008319 0.500000 
28 1 0.282622 0.025527 0.500000 
29 1 0.292911 0.008997 0.500000 
30 1 0.302619 0.026217 0.500000 
31 1 0.312901 0.009676 0.500000 
32 1 0.322610 0.026908 0.500000 
33 1 0.332885 0.010356 0.500000 
34 1 0.342593 0.027600 0.500000 
35 1 0.352861 0.011033 0.500000 
36 1 0.362570 0.028289 0.500000 
37 1 0.372830 0.011707 0.500000 
38 1 0.382537 0.028974 0.500000 
39 1 0.392791 0.012376 0.500000 
40 1 0.402497 0.029655 0.500000 
41 1 0.412744 0.013039 0.500000 
42 1 0.422448 0.030326 0.500000 
43 1 0.432688 0.013694 0.500000 
44 1 0.442390 0.030989 0.500000 
45 1 0.452624 0.014337 0.500000 
46 1 0.462324 0.031639 0.500000 
47 1 0.472553 0.014968 0.500000 
48 1 0.482250 0.032276 0.500000 
49 1 0.492474 0.015584 0.500000 
50 1 0.502167 0.032896 0.500000 
51 1 0.512388 0.016184 0.500000 
52 1 0.522078 0.033498 0.500000 
53 1 0.532295 0.016766 0.500000 
54 1 0.541983 0.034081 0.500000 
55 1 0.552198 0.017330 0.500000 
56 1 0.561882 0.034643 0.500000 
57 1 0.572095 0.017873 0.500000 
58 1 0.581777 0.035184 0.500000 
59 1 0.591989 0.018396 0.500000 
60 1 0.601668 0.035702 0.500000 
61 1 0.611880 0.018896 0.500000 
62 1 0.621558 0.036195 0.500000 
63 1 0.631769 0.019373 0.500000 
64 1 0.641446 0.036666 0.500000 
65 1 0.651657 0.019829 0.500000 
66 1 0.661334 0.037110 0.500000 
67 1 0.671546 0.020261 0.500000 
68 1 0.681223 0.037533 0.500000 
69 1 0.691436 0.020670 0.500000 
70 1 0.701115 0.037931 0.500000 
71 1 0.711328 0.021058 0.500000 
72 1 0.721007 0.038307 0.500000 
73 1 0.731222 0.021423 0.500000 
74 1 0.740905 0.038660 0.500000 
75 1 0.751120 0.021768 0.500000 
76 1 0.760806 0.038993 0.500000 
77 1 0.771021 0.022094 0.500000 
78 1 0.780711 0.039305 0.500000 
79 1 0.790927 0.022399 0.500000 
80 1 0.800620 0.039597 0.500000 
81 1 0.810837 0.022687 0.500000 
82 1 0.820536 0.039873 0.500000 
83 1 0.830751 0.022958 0.500000 
84 1 0.840456 0.040130 0.500000 
85 1 0.850671 0.023211 0.500000 
86 1 0.860382 0.040369 0.500000 
87 1 0.870595 0.023449 0.500000 
88 1 0.880312 0.040595 0.500000 
89 1 0.890525 0.023674 0.500000 
90 1 0.900248 0.040807 0.500000 
91 1 0.910459 0.023884 0.500000 
92 1 0.920188 0.041005 0.500000 
93 1 0.930398 0.024080 0.500000 
94 1 0.940134 0.041192 0.500000 
95 1 0.950341 0.024267 0.500000 
96 1 0.960084 0.041368 0.500000 
97 1 0.970290 0.024443 0.500000 
98 1 0.980040 0.041531 0.500000 
99 1 0.990243 0.024606 0.500000 
100 1 1.000000 0.041686 0.500000 
101 1 0.011983 0.033545 0.500000 
102 1 0.021650 0.050615 0.500000 
103 1 0.032014 0.034148 0.500000 
104 1 0.041680 0.051227 0.500000 
105 1 0.052044 0.034760 0.500000 
106 1 0.061715 0.051847 0.500000 
107 1 0.072075 0.035381 0.500000 
108 1 0.081747 0.052477 0.500000 
109 1 0.092107 0.036012 0.500000 
110 1 0.101781 0.053116 0.500000 
111 1 0.112138 0.036650 0.500000 
112 1 0.121815 0.053765 0.500000 
113 1 0.132168 0.037297 0.500000 
114 1 0.141847 0.054422 0.500000 
115 1 0.152197 0.037952 0.500000 
116 1 0.161880 0.055089 0.500000 
117 1 0.172226 0.038617 0.500000 
118 1 0.181910 0.055763 0.500000 
119 1 0.192251 0.039288 0.500000 
120 1 0.201937 0.056448 0.500000 
121 1 0.212274 0.039967 0.500000 
122 1 0.221962 0.057139 0.500000 
123 1 0.232293 0.040654 0.500000 
124 1 0.241984 0.057837 0.500000 
125 1 0.252309 0.041345 0.500000 
126 1 0.262002 0.058542 0.500000 
127 1 0.272318 0.042042 0.500000 
128 1 0.282015 0.059255 0.500000 
129 1 0.292324 0.042743 0.500000 
130 1 0.302021 0.059968 0.500000 
131 1 0.312323 0.043447 0.500000 
132 1 0.322020 0.060686 0.500000 
133 1 0.332314 0.044150 0.500000 
134 1 0.342013 0.061405 0.500000 
135 1 0.352297 0.044856 0.500000 
136 1 0.361996 0.062122 0.500000 
137 1 0.372273 0.045557 0.500000 
138 1 0.381972 0.062836 0.500000 
139 1 0.392240 0.046254 0.500000 
140 1 0.401937 0.063546 0.500000 
141 1 0.412198 0.046944 0.500000 
142 1 0.421894 0.064248 0.500000 
143 1 0.432147 0.047626 0.500000 
144 1 0.441840 0.064939 0.500000 
145 1 0.452087 0.048297 0.500000 
146 1 0.461777 0.065619 0.500000 
147 1 0.472018 0.048954 0.500000 
148 1 0.481705 0.066283 0.500000 
149 1 0.491940 0.049595 0.500000 
150 1 0.501624 0.066927 0.500000 
151 1 0.511855 0.050220 0.500000 
152 1 0.521535 0.067555 0.500000 
153 1 0.531762 0.050823 0.500000 
154 1 0.541439 0.068158 0.500000 
155 1 0.551663 0.051406 0.500000 
156 1 0.561337 0.068740 0.500000 
157 1 0.571560 0.051966 0.500000 
158 1 0.581230 0.069296 0.500000 
159 1 0.591452 0.052503 0.500000 
160 1 0.601120 0.069826 0.500000 
161 1 0.611341 0.053013 0.500000 
162 1 0.621008 0.070329 0.500000 
163 1 0.631230 0.053499 0.500000 
164 1 0.640896 0.070807 0.500000 
165 1 0.651117 0.053960 0.500000 
166 1 0.660783 0.071257 0.500000 
167 1 0.671006 0.054396 0.500000 
168 1 0.680673 0.071679 0.500000 
169 1 0.690897 0.054806 0.500000 
170 1 0.700565 0.072078 0.500000 
171 1 0.710789 0.055192 0.500000 
172 1 0.720461 0.072450 0.500000 
173 1 0.730685 0.055554 0.500000 
174 1 0.740360 0.072798 0.500000 
175 1 0.750586 0.055894 0.500000 
176 1 0.760265 0.073124 0.500000 
177 1 0.770490 0.056213 0.500000 
178 1 0.780175 0.073428 0.500000 
179 1 0.790400 0.056511 0.500000 
180 1 0.800092 0.073710 0.500000 
181 1 0.810316 0.056789 0.500000 
182 1 0.820012 0.073974 0.500000 
183 1 0.830238 0.057049 0.500000 
184 1 0.839940 0.074221 0.500000 
185 1 0.850164 0.057294 0.500000 
186 1 0.859873 0.074450 0.500000 
187 1 0.870095 0.057522 0.500000 
188 1 0.879811 0.074664 0.500000 
189 1 0.890032 0.057734 0.500000 
190 1 0.899757 0.074864 0.500000 
191 1 0.909975 0.057934 0.500000 
192 1 0.919708 0.075052 0.500000 
193 1 0.929922 0.058120 0.500000 
194 1 0.939662 0.075226 0.500000 
195 1 0.949875 0.058294 0.500000 
196 1 0.959621 0.075390 0.500000 
197 1 0.969833 0.058458 0.500000 
198 1 0.979588 0.075542 0.500000 
199 1 0.989796 0.058613 0.500000 
200 1 0.999557 0.075685 0.500000 
201 1 0.011275 0.067077 0.500000 
202 1 0.020924 0.084144 0.500000 
203 1 0.031308 0.067688 0.500000 
204 1 0.040959 0.084763 0.500000 
205 1 0.051342 0.068307 0.500000 
206 1 0.060994 0.085390 0.500000 
207 1 0.071376 0.068936 0.500000 
208 1 0.081032 0.086028 0.500000 
209 1 0.091412 0.069574 0.500000 
210 1 0.101070 0.086677 0.500000 
211 1 0.111448 0.070224 0.500000 
212 1 0.121109 0.087335 0.500000 
213 1 0.131484 0.070883 0.500000 
214 1 0.141147 0.088004 0.500000 
215 1 0.151519 0.071550 0.500000 
216 1 0.161186 0.088685 0.500000 
217 1 0.171555 0.072229 0.500000 
218 1 0.181224 0.089375 0.500000 
219 1 0.191588 0.072917 0.500000 
220 1 0.201260 0.090075 0.500000 
221 1 0.211618 0.073612 0.500000 
222 1 0.221294 0.090785 0.500000 
223 1 0.231647 0.074317 0.500000 
224 1 0.241324 0.091504 0.500000 
225 1 0.251670 0.075031 0.500000 
226 1 0.261351 0.092232 0.500000 
227 1 0.271690 0.075750 0.500000 
228 1 0.281375 0.092967 0.500000 
229 1 0.291705 0.076476 0.500000 
230 1 0.301391 0.093706 0.500000 
231 1 0.311712 0.077205 0.500000 
232 1 0.321400 0.094453 0.500000 
233 1 0.331714 0.077937 0.500000 
234 1 0.341402 0.095199 0.500000 
235 1 0.351707 0.078669 0.500000 
236 1 0.361395 0.095949 0.500000 
237 1 0.371690 0.079402 0.500000 
238 1 0.381379 0.096696 0.500000 
239 1 0.391665 0.080130 0.500000 
240 1 0.401352 0.097437 0.500000 
241 1 0.411629 0.080852 0.500000 
242 1 0.421315 0.098174 0.500000 
243 1 0.431583 0.081566 0.500000 
244 1 0.441267 0.098898 0.500000 
245 1 0.451527 0.082266 0.500000 
246 1 0.461208 0.099610 0.500000 
247 1 0.471461 0.082954 0.500000 
248 1 0.481138 0.100305 0.500000 
249 1 0.491385 0.083623 0.500000 
250 1 0.501058 0.100979 0.500000 
251 1 0.511301 0.084275 0.500000 
252 1 0.520969 0.101632 0.500000 
253 1 0.531208 0.084902 0.500000 
254 1 0.540873 0.102262 0.500000 
255 1 0.551108 0.085506 0.500000 
256 1 0.560770 0.102864 0.500000 
257 1 0.571003 0.086083 0.500000 
258 1 0.580661 0.103436 0.500000 
259 1 0.590894 0.086633 0.500000 
260 1 0.600550 0.103979 0.500000 
261 1 0.610782 0.087158 0.500000 
262 1 0.620436 0.104493 0.500000 
263 1 0.630669 0.087651 0.500000 
264 1 0.640323 0.104976 0.500000 
265 1 0.650556 0.088116 0.500000 
266 1 0.660211 0.105428 0.500000 
267 1 0.670445 0.088554 0.500000 
268 1 0.680102 0.105852 0.500000 
269 1 0.690336 0.088963 0.500000 
270 1 0.699996 0.106247 0.500000 
271 1 0.710230 0.089347 0.500000 
272 1 0.719893 0.106612 0.500000 
273 1 0.730130 0.089704 0.500000 
274 1 0.739798 0.106953 0.500000 
275 1 0.750034 0.090037 0.500000 
276 1 0.759708 0.107269 0.500000 
277 1 0.769946 0.090347 0.500000 
278 1 0.779625 0.107564 0.500000 
279 1 0.789861 0.090635 0.500000 
280 1 0.799547 0.107835 0.500000 
281 1 0.809783 0.090903 0.500000 
282 1 0.819479 0.108086 0.500000 
283 1 0.829711 0.091153 0.500000 
284 1 0.839413 0.108321 0.500000 
285 1 0.849646 0.091384 0.500000 
286 1 0.859357 0.108536 0.500000 
287 1 0.869588 0.091599 0.500000 
288 1 0.879306 0.108738 0.500000 
289 1 0.889533 0.091799 0.500000 
290 1 0.899262 0.108924 0.500000 
291 1 0.909486 0.091985 0.500000 
292 1 0.919222 0.109098 0.500000 
293 1 0.929443 0.092160 0.500000 
294 1 0.939188 0.109259 0.500000 
295 1 0.949407 0.092323 0.500000 
296 1 0.959160 0.109410 0.500000 
297 1 0.969375 0.092475 0.500000 
298 1 0.979136 0.109550 0.500000 
299 1 0.989349 0.092617 0.500000 
300 1 0.999117 0.109681 0.500000 
301 1 0.010532 0.100598 0.500000 
302 1 0.020165 0.117663 0.500000 
303 1 0.030566 0.101214 0.500000 
304 1 0.040201 0.118287 0.500000 
305 1 0.050602 0.101839 0.500000 
306 1 0.060239 0.118920 0.500000 
307 1 0.070640 0.102476 0.500000 
308 1 0.080278 0.119566 0.500000 
309 1 0.090679 0.103124 0.500000 
310 1 0.100319 0.120223 0.500000 
311 1 0.110721 0.103783 0.500000 
312 1 0.120362 0.120890 0.500000 
313 1 0.130762 0.104452 0.500000 
314 1 0.140407 0.121571 0.500000 
315 1 0.150803 0.105133 0.500000 
316 1 0.160452 0.122263 0.500000 
317 1 0.170846 0.105824 0.500000 
318 1 0.180497 0.122968 0.500000 
319 1 0.190885 0.106526 0.500000 
320 1 0.200541 0.123684 0.500000 
321 1 0.210925 0.107240 0.500000 
322 1 0.220584 0.124411 0.500000 
323 1 0.230962 0.107964 0.500000 
324 1 0.240624 0.125151 0.500000 
325 1 0.250996 0.108698 0.500000 
326 1 0.260661 0.125901 0.500000 
327 1 0.271027 0.109441 0.500000 
328 1 0.280695 0.126661 0.500000 
329 1 0.291052 0.110192 0.500000 
330 1 0.300722 0.127429 0.500000 
331 1 0.311070 0.110950 0.500000 
332 1 0.320743 0.128203 0.500000 
333 1 0.331081 0.111711 0.500000 
334 1 0.340757 0.128984 0.500000 
335 1 0.351084 0.112476 0.500000 
336 1 0.360761 0.129767 0.500000 
337 1 0.371078 0.113242 0.500000 
338 1 0.380755 0.130549 0.500000 
339 1 0.391061 0.114004 0.500000 
340 1 0.400737 0.131329 0.500000 
341 1 0.411034 0.114761 0.500000 
342 1 0.420708 0.132101 0.500000 
343 1 0.430994 0.115511 0.500000 
344 1 0.440666 0.132865 0.500000 
345 1 0.450943 0.116247 0.500000 
346 1 0.460612 0.133613 0.500000 
347 1 0.470881 0.116968 0.500000 
348 1 0.480546 0.134344 0.500000 
349 1 0.490807 0.117671 0.500000 
350 1 0.500468 0.135053 0.500000 
351 1 0.510723 0.118351 0.500000 
352 1 0.520379 0.135736 0.500000 
353 1 0.530630 0.119006 0.500000 
354 1 0.540282 0.136391 0.500000 
355 1 0.550529 0.119633 0.500000 
356 1 0.560177 0.137015 0.500000 
357 1 0.570423 0.120230 0.500000 
358 1 0.580067 0.137608 0.500000 
359 1 0.590312 0.120797 0.500000 
360 1 0.599954 0.138165 0.500000 
361 1 0.610198 0.121332 0.500000 
362 1 0.619839 0.138688 0.500000 
363 1 0.630084 0.121833 0.500000 
364 1 0.639725 0.139176 0.500000 
365 1 0.649971 0.122302 0.500000 
366 1 0.659613 0.139629 0.500000 
367 1 0.669860 0.122740 0.500000 
368 1 0.679506 0.140050 0.500000 
369 1 0.689755 0.123147 0.500000 
370 1 0.699404 0.140438 0.500000 
371 1 0.709652 0.123523 0.500000 
372 1 0.719306 0.140796 0.500000 
373 1 0.729557 0.123873 0.500000 
374 1 0.739216 0.141128 0.500000 
375 1 0.749467 0.124197 0.500000 
376 1 0.759135 0.141431 0.500000 
377 1 0.769384 0.124496 0.500000 
378 1 0.779059 0.141712 0.500000 
379 1 0.789308 0.124772 0.500000 
380 1 0.798992 0.141969 0.500000 
381 1 0.809239 0.125025 0.500000 
382 1 0.818932 0.142207 0.500000 
383 1 0.829177 0.125261 0.500000 
384 1 0.838879 0.142424 0.500000 
385 1 0.849121 0.125478 0.500000 
386 1 0.858835 0.142626 0.500000 
387 1 0.869073 0.125680 0.500000 
388 1 0.878797 0.142812 0.500000 
389 1 0.889031 0.125866 0.500000 
390 1 0.898764 0.142983 0.500000 
391 1 0.908996 0.126039 0.500000 
392 1 0.918737 0.143143 0.500000 
393 1 0.928965 0.126199 0.500000 
394 1 0.938716 0.143290 0.500000 
395 1 0.948940 0.126349 0.500000 
396 1 0.958701 0.143428 0.500000 
397 1 0.968919 0.126487 0.500000 
398 1 0.978689 0.143555 0.500000 
399 1 0.988905 0.126616 0.500000 
400 1 0.998682 0.143674 0.500000 
401 1 0.009754 0.134110 0.500000 
402 1 0.019367 0.151171 0.500000 
403 1 0.029790 0.134729 0.500000 
404 1 0.039403 0.151799 0.500000 
405 1 0.049825 0.135360 0.500000 
406 1 0.059442 0.152437 0.500000 
407 1 0.069865 0.136003 0.500000 
408 1 0.079484 0.153088 0.500000 
409 1 0.089908 0.136658 0.500000 
410 1 0.099527 0.153752 0.500000 
411 1 0.109951 0.137324 0.500000 
412 1 0.119573 0.154430 0.500000 
413 1 0.129997 0.138003 0.500000 
414 1 0.139621 0.155120 0.500000 
415 1 0.150044 0.138695 0.500000 
416 1 0.159671 0.155823 0.500000 
417 1 0.170092 0.139400 0.500000 
418 1 0.179723 0.156540 0.500000 
419 1 0.190140 0.140117 0.500000 
420 1 0.199775 0.157271 0.500000 
421 1 0.210187 0.140848 0.500000 
422 1 0.219825 0.158016 0.500000 
423 1 0.230233 0.141590 0.500000 
424 1 0.239877 0.158777 0.500000 
425 1 0.250278 0.142345 0.500000 
426 1 0.259923 0.159549 0.500000 
427 1 0.270319 0.143112 0.500000 
428 1 0.279970 0.160334 0.500000 
429 1 0.290355 0.143890 0.500000 
430 1 0.300009 0.161130 0.500000 
431 1 0.310387 0.144676 0.500000 
432 1 0.320043 0.161935 0.500000 
433 1 0.330410 0.145471 0.500000 
434 1 0.340070 0.162751 0.500000 
435 1 0.350425 0.146269 0.500000 
436 1 0.360087 0.163570 0.500000 
437 1 0.370431 0.147071 0.500000 
438 1 0.380093 0.164392 0.500000 
439 1 0.390425 0.147873 0.500000 
440 1 0.400087 0.165215 0.500000 
441 1 0.410407 0.148671 0.500000 
442 1 0.420068 0.166030 0.500000 
443 1 0.430376 0.149459 0.500000 
444 1 0.440035 0.166837 0.500000 
445 1 0.450331 0.150237 0.500000 
446 1 0.459987 0.167629 0.500000 
447 1 0.470273 0.150997 0.500000 
448 1 0.479925 0.168401 0.500000 
449 1 0.490202 0.151737 0.500000 
450 1 0.499849 0.169150 0.500000 
451 1 0.510119 0.152452 0.500000 
452 1 0.519760 0.169869 0.500000 
453 1 0.530026 0.153138 0.500000 
454 1 0.539662 0.170555 0.500000 
455 1 0.549924 0.153792 0.500000 
456 1 0.559555 0.171205 0.500000 
457 1 0.569815 0.154411 0.500000 
458 1 0.579443 0.171815 0.500000 
459 1 0.589702 0.154994 0.500000 
460 1 0.599328 0.172388 0.500000 
461 1 0.609587 0.155539 0.500000 
462 1 0.619212 0.172917 0.500000 
463 1 0.629472 0.156047 0.500000 
464 1 0.639098 0.173408 0.500000 
465 1 0.649359 0.156518 0.500000 
466 1 0.658988 0.173860 0.500000 
467 1 0.669251 0.156954 0.500000 
468 1 0.678883 0.174276 0.500000 
469 1 0.689148 0.157356 0.500000 
470 1 0.698786 0.174655 0.500000 
471 1 0.709051 0.157723 0.500000 
472 1 0.718698 0.175002 0.500000 
473 1 0.728961 0.158063 0.500000 
474 1 0.738617 0.175319 0.500000 
475 1 0.748879 0.158373 0.500000 
476 1 0.758544 0.175607 0.500000 
477 1 0.768805 0.158656 0.500000 
478 1 0.778481 0.175871 0.500000 
479 1 0.788740 0.158916 0.500000 
480 1 0.798426 0.176110 0.500000 
481 1 0.808682 0.159156 0.500000 
482 1 0.818379 0.176331 0.500000 
483 1 0.828633 0.159375 0.500000 
484 1 0.838340 0.176531 0.500000 
485 1 0.848591 0.159577 0.500000 
486 1 0.858309 0.176715 0.500000 
487 1 0.868555 0.159761 0.500000 
488 1 0.878286 0.176884 0.500000 
489 1 0.888527 0.159932 0.500000 
490 1 0.898267 0.177040 0.500000 
491 1 0.908505 0.160090 0.500000 
492 1 0.918255 0.177184 0.500000 
493 1 0.928487 0.160235 0.500000 
494 1 0.938250 0.177315 0.500000 
495 1 0.948477 0.160370 0.500000 
496 1 0.958249 0.177440 0.500000 
497 1 0.968470 0.160496 0.500000 
498 1 0.978251 0.177553 0.500000 
499 1 0.988467 0.160611 0.500000 
500 1 0.998258 0.177659 0.500000 
501 1 0.008938 0.167610 0.500000 
502 1 0.018532 0.184668 0.500000 
503 1 0.028972 0.168234 0.500000 
504 1 0.038566 0.185299 0.500000 
505 1 0.049008 0.168868 0.500000 
506 1 0.058602 0.185942 0.500000 
507 1 0.069047 0.169517 0.500000 
508 1 0.078643 0.186599 0.500000 
509 1 0.089090 0.170177 0.500000 
510 1 0.098688 0.187268 0.500000 
511 1 0.109137 0.170850 0.500000 
512 1 0.118736 0.187950 0.500000 
513 1 0.129185 0.171538 0.500000 
514 1 0.138786 0.188649 0.500000 
515 1 0.149237 0.172239 0.500000 
516 1 0.158840 0.189363 0.500000 
517 1 0.169289 0.172955 0.500000 
518 1 0.178897 0.190092 0.500000 
519 1 0.189344 0.173686 0.500000 
520 1 0.198954 0.190837 0.500000 
521 1 0.209399 0.174433 0.500000 
522 1 0.219013 0.191599 0.500000 
523 1 0.229455 0.175193 0.500000 
524 1 0.239073 0.192377 0.500000 
525 1 0.249508 0.175969 0.500000 
526 1 0.259132 0.193170 0.500000 
527 1 0.269562 0.176760 0.500000 
528 1 0.279190 0.193980 0.500000 
529 1 0.289610 0.177564 0.500000 
530 1 0.299243 0.194806 0.500000 
531 1 0.309655 0.178381 0.500000 
532 1 0.319291 0.195644 0.500000 
533 1 0.329692 0.179209 0.500000 
534 1 0.339333 0.196496 0.500000 
535 1 0.349722 0.180045 0.500000 
536 1 0.359366 0.197356 0.500000 
537 1 0.369741 0.180888 0.500000 
538 1 0.379387 0.198223 0.500000 
539 1 0.389748 0.181733 0.500000 
540 1 0.399396 0.199092 0.500000 
541 1 0.409742 0.182576 0.500000 
542 1 0.419389 0.199958 0.500000 
543 1 0.429722 0.183412 0.500000 
544 1 0.439366 0.200817 0.500000 
545 1 0.449685 0.184236 0.500000 
546 1 0.459326 0.201660 0.500000 
547 1 0.469633 0.185043 0.500000 
548 1 0.479269 0.202480 0.500000 
549 1 0.489566 0.185828 0.500000 
550 1 0.499196 0.203275 0.500000 
551 1 0.509485 0.186581 0.500000 
552 1 0.519109 0.204036 0.500000 
553 1 0.529391 0.187304 0.500000 
554 1 0.539009 0.204756 0.500000 
555 1 0.549287 0.187987 0.500000 
556 1 0.558900 0.205434 0.500000 
557 1 0.569176 0.188630 0.500000 
558 1 0.578785 0.206067 0.500000 
559 1 0.589061 0.189230 0.500000 
560 1 0.598668 0.206651 0.500000 
561 1 0.608944 0.189787 0.500000 
562 1 0.618552 0.207189 0.500000 
563 1 0.628829 0.190299 0.500000 
564 1 0.638439 0.207679 0.500000 
565 1 0.648718 0.190770 0.500000 
566 1 0.658333 0.208126 0.500000 
567 1 0.668613 0.191199 0.500000 
568 1 0.678234 0.208531 0.500000 
569 1 0.688515 0.191590 0.500000 
570 1 0.698144 0.208896 0.500000 
571 1 0.708425 0.191945 0.500000 
572 1 0.718067 0.209226 0.500000 
573 1 0.728345 0.192270 0.500000 
574 1 0.737996 0.209524 0.500000 
575 1 0.748275 0.192563 0.500000 
576 1 0.757938 0.209793 0.500000 
577 1 0.768213 0.192828 0.500000 
578 1 0.777890 0.210036 0.500000 
579 1 0.788162 0.193071 0.500000 
580 1 0.797850 0.210257 0.500000 
581 1 0.808118 0.193290 0.500000 
582 1 0.817820 0.210457 0.500000 
583 1 0.828085 0.193492 0.500000 
584 1 0.837799 0.210638 0.500000 
585 1 0.848057 0.193675 0.500000 
586 1 0.857785 0.210803 0.500000 
587 1 0.868038 0.193842 0.500000 
588 1 0.877779 0.210953 0.500000 
589 1 0.888025 0.193996 0.500000 
590 1 0.897777 0.211091 0.500000 
591 1 0.908019 0.194135 0.500000 
592 1 0.917783 0.211219 0.500000 
593 1 0.928017 0.194266 0.500000 
594 1 0.937792 0.211334 0.500000 
595 1 0.948021 0.194385 0.500000 
596 1 0.957807 0.211443 0.500000 
597 1 0.968031 0.194496 0.500000 
598 1 0.977825 0.211543 0.500000 
599 1 0.988043 0.194599 0.500000 
600 1 0.997847 0.211634 0.500000 
601 1 0.008083 0.201103 0.500000 
602 1 0.017654 0.218157 0.500000 
603 1 0.028113 0.201727 0.500000 
604 1 0.037684 0.218790 0.500000 
605 1 0.048147 0.202367 0.500000 
606 1 0.057718 0.219436 0.500000 
607 1 0.068185 0.203017 0.500000 
608 1 0.077756 0.220095 0.500000 
609 1 0.088226 0.203682 0.500000 
610 1 0.097799 0.220769 0.500000 
611 1 0.108273 0.204362 0.500000 
612 1 0.117846 0.221457 0.500000 
613 1 0.128323 0.205055 0.500000 
614 1 0.137896 0.222162 0.500000 
615 1 0.148375 0.205765 0.500000 
616 1 0.157951 0.222883 0.500000 
617 1 0.168432 0.206491 0.500000 
618 1 0.178010 0.223621 0.500000 
619 1 0.188491 0.207232 0.500000 
620 1 0.198072 0.224378 0.500000 
621 1 0.208553 0.207993 0.500000 
622 1 0.218138 0.225154 0.500000 
623 1 0.228616 0.208770 0.500000 
624 1 0.238206 0.225949 0.500000 
625 1 0.248680 0.209565 0.500000 
626 1 0.258276 0.226763 0.500000 
627 1 0.268744 0.210379 0.500000 
628 1 0.278343 0.227597 0.500000 
629 1 0.288807 0.211210 0.500000 
630 1 0.298411 0.228451 0.500000 
631 1 0.308866 0.212059 0.500000 
632 1 0.318476 0.229323 0.500000 
633 1 0.328918 0.212921 0.500000 
634 1 0.338535 0.230213 0.500000 
635 1 0.348964 0.213798 0.500000 
636 1 0.358586 0.231116 0.500000 
637 1 0.369000 0.214685 0.500000 
638 1 0.378625 0.232032 0.500000 
639 1 0.389024 0.215578 0.500000 
640 1 0.398651 0.232954 0.500000 
641 1 0.409033 0.216474 0.500000 
642 1 0.418661 0.233879 0.500000 
643 1 0.429026 0.217364 0.500000 
644 1 0.438653 0.234798 0.500000 
645 1 0.449000 0.218245 0.500000 
646 1 0.458624 0.235701 0.500000 
647 1 0.468956 0.219107 0.500000 
648 1 0.478574 0.236582 0.500000 
649 1 0.488894 0.219943 0.500000 
650 1 0.498505 0.237432 0.500000 
651 1 0.508814 0.220745 0.500000 
652 1 0.518418 0.238241 0.500000 
653 1 0.528720 0.221509 0.500000 
654 1 0.538316 0.239003 0.500000 
655 1 0.548614 0.222226 0.500000 
656 1 0.558204 0.239713 0.500000 
657 1 0.568500 0.222895 0.500000 
658 1 0.578087 0.240367 0.500000 
659 1 0.588383 0.223513 0.500000 
660 1 0.597968 0.240965 0.500000 
661 1 0.608265 0.224078 0.500000 
662 1 0.617852 0.241505 0.500000 
663 1 0.628151 0.224592 0.500000 
664 1 0.637743 0.241991 0.500000 
665 1 0.648043 0.225056 0.500000 
666 1 0.657643 0.242425 0.500000 
667 1 0.667944 0.225475 0.500000 
668 1 0.677555 0.242813 0.500000 
669 1 0.687855 0.225852 0.500000 
670 1 0.697477 0.243160 0.500000 
671 1 0.707777 0.226190 0.500000 
672 1 0.717414 0.243469 0.500000 
673 1 0.727710 0.226492 0.500000 
674 1 0.737361 0.243743 0.500000 
675 1 0.747654 0.226764 0.500000 
676 1 0.757321 0.243988 0.500000 
677 1 0.767610 0.227009 0.500000 
678 1 0.777291 0.244207 0.500000 
679 1 0.787575 0.227228 0.500000 
680 1 0.797272 0.244403 0.500000 
681 1 0.807550 0.227426 0.500000 
682 1 0.817263 0.244579 0.500000 
683 1 0.827535 0.227606 0.500000 
684 1 0.837262 0.244739 0.500000 
685 1 0.847526 0.227768 0.500000 
686 1 0.857268 0.244884 0.500000 
687 1 0.867525 0.227916 0.500000 
688 1 0.877280 0.245015 0.500000 
689 1 0.887531 0.228051 0.500000 
690 1 0.897300 0.245134 0.500000 
691 1 0.907543 0.228175 0.500000 
692 1 0.917324 0.245243 0.500000 
693 1 0.927560 0.228287 0.500000 
694 1 0.937351 0.245343 0.500000 
695 1 0.947580 0.228392 0.500000 
696 1 0.957383 0.245436 0.500000 
697 1 0.967605 0.228489 0.500000 
698 1 0.977417 0.245522 0.500000 
699 1 0.987634 0.228577 0.500000 
700 1 0.997455 0.245600 0.500000 
701 1 0.007189 0.234587 0.500000 
702 1 0.016737 0.251640 0.500000 
703 1 0.027214 0.235215 0.500000 
704 1 0.036760 0.252274 0.500000 
705 1 0.047243 0.235854 0.500000 
706 1 0.056787 0.252921 0.500000 
707 1 0.067275 0.236508 0.500000 
708 1 0.076820 0.253583 0.500000 
709 1 0.087315 0.237175 0.500000 
710 1 0.096857 0.254259 0.500000 
711 1 0.107356 0.237858 0.500000 
712 1 0.116900 0.254950 0.500000 
713 1 0.127404 0.238556 0.500000 
714 1 0.136948 0.255659 0.500000 
715 1 0.147456 0.239272 0.500000 
716 1 0.157002 0.256387 0.500000 
717 1 0.167513 0.240006 0.500000 
718 1 0.177059 0.257131 0.500000 
719 1 0.187575 0.240758 0.500000 
720 1 0.197123 0.257897 0.500000 
721 1 0.207640 0.241529 0.500000 
722 1 0.217193 0.258683 0.500000 
723 1 0.227709 0.242320 0.500000 
724 1 0.237266 0.259494 0.500000 
725 1 0.247782 0.243134 0.500000 
726 1 0.257343 0.260325 0.500000 
727 1 0.267856 0.243969 0.500000 
728 1 0.277421 0.261180 0.500000 
729 1 0.287930 0.244824 0.500000 
730 1 0.297503 0.262061 0.500000 
731 1 0.308005 0.245702 0.500000 
732 1 0.317583 0.262964 0.500000 
733 1 0.328075 0.246602 0.500000 
734 1 0.337660 0.263894 0.500000 
735 1 0.348140 0.247519 0.500000 
736 1 0.357732 0.264844 0.500000 
737 1 0.368196 0.248453 0.500000 
738 1 0.377793 0.265811 0.500000 
739 1 0.388239 0.249402 0.500000 
740 1 0.397842 0.266796 0.500000 
741 1 0.408268 0.250357 0.500000 
742 1 0.417873 0.267785 0.500000 
743 1 0.428278 0.251312 0.500000 
744 1 0.437883 0.268775 0.500000 
745 1 0.448267 0.252259 0.500000 
746 1 0.457869 0.269753 0.500000 
747 1 0.468234 0.253186 0.500000 
748 1 0.477830 0.270708 0.500000 
749 1 0.488178 0.254088 0.500000 
750 1 0.497766 0.271625 0.500000 
751 1 0.508101 0.254949 0.500000 
752 1 0.517680 0.272496 0.500000 
753 1 0.528006 0.255762 0.500000 
754 1 0.537576 0.273306 0.500000 
755 1 0.547897 0.256519 0.500000 
756 1 0.557461 0.274053 0.500000 
757 1 0.567780 0.257216 0.500000 
758 1 0.577340 0.274729 0.500000 
759 1 0.587660 0.257849 0.500000 
760 1 0.597221 0.275334 0.500000 
761 1 0.607543 0.258419 0.500000 
762 1 0.617108 0.275872 0.500000 
763 1 0.627432 0.258930 0.500000 
764 1 0.637006 0.276346 0.500000 
765 1 0.647331 0.259383 0.500000 
766 1 0.656918 0.276762 0.500000 
767 1 0.667242 0.259783 0.500000 
768 1 0.676844 0.277125 0.500000 
769 1 0.687167 0.260138 0.500000 
770 1 0.696785 0.277443 0.500000 
771 1 0.707105 0.260452 0.500000 
772 1 0.716743 0.277722 0.500000 
773 1 0.727057 0.260728 0.500000 
774 1 0.736714 0.277967 0.500000 
775 1 0.747022 0.260973 0.500000 
776 1 0.756698 0.278182 0.500000 
777 1 0.767000 0.261192 0.500000 
778 1 0.776693 0.278374 0.500000 
779 1 0.786988 0.261385 0.500000 
780 1 0.796699 0.278544 0.500000 
781 1 0.806985 0.261559 0.500000 
782 1 0.816713 0.278694 0.500000 
783 1 0.826990 0.261714 0.500000 
784 1 0.836737 0.278831 0.500000 
785 1 0.847005 0.261856 0.500000 
786 1 0.856766 0.278953 0.500000 
787 1 0.867026 0.261982 0.500000 
788 1 0.876801 0.279063 0.500000 
789 1 0.887052 0.262097 0.500000 
790 1 0.896841 0.279163 0.500000 
791 1 0.907084 0.262202 0.500000 
792 1 0.916886 0.279257 0.500000 
793 1 0.927120 0.262299 0.500000 
794 1 0.936932 0.279339 0.500000 
795 1 0.947159 0.262387 0.500000 
796 1 0.956982 0.279417 0.500000 
797 1 0.967200 0.262468 0.500000 
798 1 0.977036 0.279488 0.500000 
799 1 0.987245 0.262544 0.500000 
800 1 0.997089 0.279555 0.500000 
801 1 0.006256 0.268068 0.500000 
802 1 0.015779 0.285121 0.500000 
803 1 0.026272 0.268696 0.500000 
804 1 0.035792 0.285753 0.500000 
805 1 0.046292 0.269335 0.500000 
806 1 0.055810 0.286400 0.500000 
807 1 0.066319 0.269991 0.500000 
808 1 0.075835 0.287062 0.500000 
809 1 0.086350 0.270660 0.500000 
810 1 0.095864 0.287740 0.500000 
811 1 0.106386 0.271344 0.500000 
812 1 0.115898 0.288433 0.500000 
813 1 0.126429 0.272046 0.500000 
814 1 0.135939 0.289143 0.500000 
815 1 0.146475 0.272765 0.500000 
816 1 0.155986 0.289873 0.500000 
817 1 0.166530 0.273503 0.500000 
818 1 0.176039 0.290623 0.500000 
819 1 0.186589 0.274262 0.500000 
820 1 0.196100 0.291395 0.500000 
821 1 0.206655 0.275041 0.500000 
822 1 0.216168 0.292190 0.500000 
823 1 0.226727 0.275844 0.500000 
824 1 0.236241 0.293009 0.500000 
825 1 0.246803 0.276670 0.500000 
826 1 0.256321 0.293854 0.500000 
827 1 0.266885 0.277522 0.500000 
828 1 0.276408 0.294728 0.500000 
829 1 0.286971 0.278401 0.500000 
830 1 0.296499 0.295632 0.500000 
831 1 0.307058 0.279307 0.500000 
832 1 0.316594 0.296564 0.500000 
833 1 0.327145 0.280241 0.500000 
834 1 0.336689 0.297530 0.500000 
835 1 0.347230 0.281200 0.500000 
836 1 0.356782 0.298525 0.500000 
837 1 0.367309 0.282186 0.500000 
838 1 0.376870 0.299549 0.500000 
839 1 0.387377 0.283193 0.500000 
840 1 0.396945 0.300599 0.500000 
841 1 0.407431 0.284215 0.500000 
842 1 0.417005 0.301666 0.500000 
843 1 0.427464 0.285245 0.500000 
844 1 0.437041 0.302740 0.500000 
845 1 0.447474 0.286272 0.500000 
846 1 0.457048 0.303811 0.500000 
847 1 0.467456 0.287285 0.500000 
848 1 0.477025 0.304858 0.500000 
849 1 0.487409 0.288266 0.500000 
850 1 0.496969 0.305865 0.500000 
851 1 0.507336 0.289198 0.500000 
852 1 0.516884 0.306810 0.500000 
853 1 0.527240 0.290073 0.500000 
854 1 0.536777 0.307682 0.500000 
855 1 0.547127 0.290876 0.500000 
856 1 0.556657 0.308467 0.500000 
857 1 0.567006 0.291602 0.500000 
858 1 0.576534 0.309163 0.500000 
859 1 0.586885 0.292249 0.500000 
860 1 0.596416 0.309770 0.500000 
861 1 0.606770 0.292819 0.500000 
862 1 0.616311 0.310294 0.500000 
863 1 0.626667 0.293316 0.500000 
864 1 0.636224 0.310744 0.500000 
865 1 0.646579 0.293747 0.500000 
866 1 0.656155 0.311129 0.500000 
867 1 0.666507 0.294121 0.500000 
868 1 0.676106 0.311456 0.500000 
869 1 0.686454 0.294445 0.500000 
870 1 0.696076 0.311737 0.500000 
871 1 0.706415 0.294725 0.500000 
872 1 0.716062 0.311981 0.500000 
873 1 0.726394 0.294969 0.500000 
874 1 0.736064 0.312189 0.500000 
875 1 0.746386 0.295183 0.500000 
876 1 0.756079 0.312372 0.500000 
877 1 0.766391 0.295369 0.500000 
878 1 0.776106 0.312532 0.500000 
879 1 0.786406 0.295535 0.500000 
880 1 0.796142 0.312672 0.500000 
881 1 0.806431 0.295682 0.500000 