ITEM: TIMESTEP
800
ITEM: NUMBER OF ATOMS
2850
ITEM: BOX BOUNDS ss ss pp
-28.0536 28.3253 
-28.9988 28.9984 
-0.5 0.5 
ITEM: ATOMS id type xs ys zs
1 1 0.012661 0.000000 0.500000 
2 1 0.022340 0.017073 0.500000 
3 1 0.032688 0.000597 0.500000 
4 1 0.042369 0.017677 0.500000 
5 1 0.052715 0.001202 0.500000 
6 1 0.062397 0.018289 0.500000 
7 1 0.072742 0.001814 0.500000 
8 1 0.082426 0.018911 0.500000 
9 1 0.092767 0.002433 0.500000 
10 1 0.102455 0.019539 0.500000 
11 1 0.112794 0.003060 0.500000 
12 1 0.122484 0.020177 0.500000 
13 1 0.132817 0.003697 0.500000 
14 1 0.142511 0.020822 0.500000 
15 1 0.152841 0.004338 0.500000 
16 1 0.162536 0.021475 0.500000 
17 1 0.172861 0.004988 0.500000 
18 1 0.182559 0.022136 0.500000 
19 1 0.192879 0.005643 0.500000 
20 1 0.202579 0.022803 0.500000 
21 1 0.212895 0.006305 0.500000 
22 1 0.222596 0.023475 0.500000 
23 1 0.232906 0.006973 0.500000 
24 1 0.242610 0.024155 0.500000 
25 1 0.252912 0.007645 0.500000 
26 1 0.262618 0.024839 0.500000 
27 1 0.272914 0.008319 0.500000 
28 1 0.282622 0.025527 0.500000 
29 1 0.292911 0.008997 0.500000 
30 1 0.302619 0.026217 0.500000 
31 1 0.312901 0.009676 0.500000 
32 1 0.322610 0.026908 0.500000 
33 1 0.332885 0.010356 0.500000 
34 1 0.342593 0.027600 0.500000 
35 1 0.352861 0.011033 0.500000 
36 1 0.362570 0.028289 0.500000 
37 1 0.372830 0.011707 0.500000 
38 1 0.382537 0.028974 0.500000 
39 1 0.392791 0.012376 0.500000 
40 1 0.402497 0.029655 0.500000 
41 1 0.412744 0.013039 0.500000 
42 1 0.422448 0.030326 0.500000 
43 1 0.432688 0.013694 0.500000 
44 1 0.442390 0.030989 0.500000 
45 1 0.452624 0.014337 0.500000 
46 1 0.462324 0.031639 0.500000 
47 1 0.472553 0.014968 0.500000 
48 1 0.482250 0.032276 0.500000 
49 1 0.492474 0.015584 0.500000 
50 1 0.502167 0.032896 0.500000 
51 1 0.512388 0.016184 0.500000 
52 1 0.522078 0.033498 0.500000 
53 1 0.532295 0.016766 0.500000 
54 1 0.541983 0.034081 0.500000 
55 1 0.552198 0.017330 0.500000 
56 1 0.561882 0.034643 0.500000 
57 1 0.572095 0.017873 0.500000 
58 1 0.581777 0.035184 0.500000 
59 1 0.591989 0.018396 0.500000 
60 1 0.601668 0.035702 0.500000 
61 1 0.611880 0.018896 0.500000 
62 1 0.621558 0.036195 0.500000 
63 1 0.631769 0.019373 0.500000 
64 1 0.641446 0.036666 0.500000 
65 1 0.651657 0.019829 0.500000 
66 1 0.661334 0.037110 0.500000 
67 1 0.671546 0.020261 0.500000 
68 1 0.681223 0.037533 0.500000 
69 1 0.691436 0.020670 0.500000 
70 1 0.701115 0.037931 0.500000 
71 1 0.711328 0.021058 0.500000 
72 1 0.721007 0.038307 0.500000 
73 1 0.731222 0.021423 0.500000 
74 1 0.740905 0.038660 0.500000 
75 1 0.751120 0.021768 0.500000 
76 1 0.760806 0.038993 0.500000 
77 1 0.771021 0.022094 0.500000 
78 1 0.780711 0.039305 0.500000 
79 1 0.790927 0.022399 0.500000 
80 1 0.800620 0.039597 0.500000 
81 1 0.810837 0.022687 0.500000 
82 1 0.820536 0.039873 0.500000 
83 1 0.830751 0.022958 0.500000 
84 1 0.840456 0.040130 0.500000 
85 1 0.850671 0.023211 0.500000 
86 1 0.860382 0.040369 0.500000 
87 1 0.870595 0.023449 0.500000 
88 1 0.880312 0.040595 0.500000 
89 1 0.890525 0.023674 0.500000 
90 1 0.900248 0.040807 0.500000 
91 1 0.910459 0.023884 0.500000 
92 1 0.920188 0.041005 0.500000 
93 1 0.930398 0.024080 0.500000 
94 1 0.940134 0.041192 0.500000 
95 1 0.950341 0.024267 0.500000 
96 1 0.960084 0.041368 0.500000 
97 1 0.970290 0.024443 0.500000 
98 1 0.980040 0.041531 0.500000 
99 1 0.990243 0.024606 0.500000 
100 1 1.000000 0.041686 0.500000 
101 1 0.011983 0.033545 0.500000 
102 1 0.021650 0.050615 0.500000 
103 1 0.032014 0.034148 0.500000 
104 1 0.041680 0.051227 0.500000 
105 1 0.052044 0.034760 0.500000 
106 1 0.061715 0.051847 0.500000 
107 1 0.072075 0.035381 0.500000 
108 1 0.081719 0.052455 0.500000 
109 1 0.092107 0.036012 0.500000 
110 1 0.101768 0.053104 0.500000 
111 1 0.112138 0.036650 0.500000 
112 1 0.121843 0.053742 0.500000 
113 1 0.132168 0.037297 0.500000 
114 1 0.141880 0.054410 0.500000 
115 1 0.152197 0.037952 0.500000 
116 1 0.161894 0.055096 0.500000 
117 1 0.172226 0.038617 0.500000 
118 1 0.181912 0.055807 0.500000 
119 1 0.192251 0.039288 0.500000 
120 1 0.201952 0.056493 0.500000 
121 1 0.212274 0.039967 0.500000 
122 1 0.221978 0.057202 0.500000 
123 1 0.232293 0.040654 0.500000 
124 1 0.242005 0.057917 0.500000 
125 1 0.252309 0.041345 0.500000 
126 1 0.262040 0.058624 0.500000 
127 1 0.272318 0.042042 0.500000 
128 1 0.282049 0.059346 0.500000 
129 1 0.292324 0.042743 0.500000 
130 1 0.302018 0.060101 0.500000 
131 1 0.312323 0.043447 0.500000 
132 1 0.321989 0.060833 0.500000 
133 1 0.332314 0.044150 0.500000 
134 1 0.341973 0.061496 0.500000 
135 1 0.352297 0.044856 0.500000 
136 1 0.361949 0.062184 0.500000 
137 1 0.372273 0.045557 0.500000 
138 1 0.381914 0.062932 0.500000 
139 1 0.392240 0.046254 0.500000 
140 1 0.401868 0.063640 0.500000 
141 1 0.412198 0.046944 0.500000 
142 1 0.421802 0.064303 0.500000 
143 1 0.432147 0.047626 0.500000 
144 1 0.441726 0.065006 0.500000 
145 1 0.452087 0.048297 0.500000 
146 1 0.461668 0.065710 0.500000 
147 1 0.472018 0.048954 0.500000 
148 1 0.481610 0.066374 0.500000 
149 1 0.491940 0.049595 0.500000 
150 1 0.501516 0.067030 0.500000 
151 1 0.511855 0.050220 0.500000 
152 1 0.521413 0.067650 0.500000 
153 1 0.531762 0.050823 0.500000 
154 1 0.541326 0.068239 0.500000 
155 1 0.551663 0.051406 0.500000 
156 1 0.561228 0.068805 0.500000 
157 1 0.571560 0.051966 0.500000 
158 1 0.581117 0.069336 0.500000 
159 1 0.591452 0.052503 0.500000 
160 1 0.601013 0.069869 0.500000 
161 1 0.611341 0.053013 0.500000 
162 1 0.620908 0.070364 0.500000 
163 1 0.631230 0.053499 0.500000 
164 1 0.640794 0.070804 0.500000 
165 1 0.651117 0.053960 0.500000 
166 1 0.660675 0.071246 0.500000 
167 1 0.671006 0.054396 0.500000 
168 1 0.680555 0.071672 0.500000 
169 1 0.690897 0.054806 0.500000 
170 1 0.700435 0.072087 0.500000 
171 1 0.710789 0.055192 0.500000 
172 1 0.720311 0.072468 0.500000 
173 1 0.730685 0.055554 0.500000 
174 1 0.740174 0.072787 0.500000 
175 1 0.750586 0.055894 0.500000 
176 1 0.760055 0.073073 0.500000 
177 1 0.770490 0.056213 0.500000 
178 1 0.779985 0.073349 0.500000 
179 1 0.790400 0.056511 0.500000 
180 1 0.799930 0.073662 0.500000 
181 1 0.810316 0.056789 0.500000 
182 1 0.819863 0.073957 0.500000 
183 1 0.830238 0.057049 0.500000 
184 1 0.839802 0.074176 0.500000 
185 1 0.850164 0.057294 0.500000 
186 1 0.859794 0.074363 0.500000 
187 1 0.870095 0.057522 0.500000 
188 1 0.879796 0.074599 0.500000 
189 1 0.890032 0.057734 0.500000 
190 1 0.899754 0.074852 0.500000 
191 1 0.909975 0.057934 0.500000 
192 1 0.919692 0.075091 0.500000 
193 1 0.929922 0.058120 0.500000 
194 1 0.939637 0.075261 0.500000 
195 1 0.949875 0.058294 0.500000 
196 1 0.959621 0.075390 0.500000 
197 1 0.969833 0.058458 0.500000 
198 1 0.979588 0.075542 0.500000 
199 1 0.989796 0.058613 0.500000 
200 1 0.999557 0.075685 0.500000 
201 1 0.011275 0.067077 0.500000 
202 1 0.020924 0.084144 0.500000 
203 1 0.031308 0.067688 0.500000 
204 1 0.040959 0.084763 0.500000 
205 1 0.051342 0.068307 0.500000 
206 1 0.060994 0.085390 0.500000 
207 1 0.071376 0.068936 0.500000 
208 1 0.081058 0.086046 0.500000 
209 1 0.091416 0.069567 0.500000 
210 1 0.101114 0.086664 0.500000 
211 1 0.111486 0.070190 0.500000 
212 1 0.121139 0.087338 0.500000 
213 1 0.131527 0.070864 0.500000 
214 1 0.141168 0.088022 0.500000 
215 1 0.151545 0.071558 0.500000 
216 1 0.161179 0.088767 0.500000 
217 1 0.171545 0.072292 0.500000 
218 1 0.181222 0.089495 0.500000 
219 1 0.191586 0.073000 0.500000 
220 1 0.201276 0.090224 0.500000 
221 1 0.211632 0.073732 0.500000 
222 1 0.221338 0.090958 0.500000 
223 1 0.231675 0.074460 0.500000 
224 1 0.241371 0.091715 0.500000 
225 1 0.251707 0.075183 0.500000 
226 1 0.261360 0.092487 0.500000 
227 1 0.271707 0.075922 0.500000 
228 1 0.281324 0.093276 0.500000 
229 1 0.291670 0.076706 0.500000 
230 1 0.301307 0.094044 0.500000 
231 1 0.311647 0.077458 0.500000 
232 1 0.321309 0.094767 0.500000 
233 1 0.331655 0.078140 0.500000 
234 1 0.341271 0.095481 0.500000 
235 1 0.351627 0.078831 0.500000 
236 1 0.361199 0.096227 0.500000 
237 1 0.371561 0.079590 0.500000 
238 1 0.381168 0.096990 0.500000 
239 1 0.391524 0.080343 0.500000 
240 1 0.401157 0.097736 0.500000 
241 1 0.411496 0.081035 0.500000 
242 1 0.421090 0.098476 0.500000 
243 1 0.431419 0.081730 0.500000 
244 1 0.440991 0.099197 0.500000 
245 1 0.451328 0.082435 0.500000 
246 1 0.460907 0.099891 0.500000 
247 1 0.471256 0.083118 0.500000 
248 1 0.480825 0.100576 0.500000 
249 1 0.491173 0.083798 0.500000 
250 1 0.500732 0.101238 0.500000 
251 1 0.511074 0.084445 0.500000 
252 1 0.520619 0.101882 0.500000 
253 1 0.530971 0.085047 0.500000 
254 1 0.540495 0.102489 0.500000 
255 1 0.550867 0.085641 0.500000 
256 1 0.560389 0.103048 0.500000 
257 1 0.570757 0.086194 0.500000 
258 1 0.580284 0.103589 0.500000 
259 1 0.590634 0.086716 0.500000 
260 1 0.600169 0.104100 0.500000 
261 1 0.610534 0.087234 0.500000 
262 1 0.620062 0.104596 0.500000 
263 1 0.630441 0.087703 0.500000 
264 1 0.639976 0.105044 0.500000 
265 1 0.650333 0.088128 0.500000 
266 1 0.659907 0.105436 0.500000 
267 1 0.670236 0.088553 0.500000 
268 1 0.679833 0.105854 0.500000 
269 1 0.690135 0.088973 0.500000 
270 1 0.699734 0.106253 0.500000 
271 1 0.710022 0.089357 0.500000 
272 1 0.719608 0.106601 0.500000 
273 1 0.729888 0.089707 0.500000 
274 1 0.739500 0.106910 0.500000 
275 1 0.749740 0.089987 0.500000 
276 1 0.759397 0.107174 0.500000 
277 1 0.769632 0.090222 0.500000 
278 1 0.779291 0.107416 0.500000 
279 1 0.789579 0.090510 0.500000 
280 1 0.799232 0.107687 0.500000 
281 1 0.809559 0.090836 0.500000 
282 1 0.819217 0.107995 0.500000 
283 1 0.829518 0.091102 0.500000 
284 1 0.839208 0.108196 0.500000 
285 1 0.849466 0.091242 0.500000 
286 1 0.859150 0.108344 0.500000 
287 1 0.869422 0.091427 0.500000 
288 1 0.879089 0.108566 0.500000 
289 1 0.889394 0.091724 0.500000 
290 1 0.899089 0.108859 0.500000 
291 1 0.909372 0.092009 0.500000 
292 1 0.919128 0.109101 0.500000 
293 1 0.929379 0.092226 0.500000 
294 1 0.939174 0.109273 0.500000 
295 1 0.949407 0.092323 0.500000 
296 1 0.959160 0.109410 0.500000 
297 1 0.969375 0.092475 0.500000 
298 1 0.979136 0.109550 0.500000 
299 1 0.989349 0.092617 0.500000 
300 1 0.999117 0.109681 0.500000 
301 1 0.010532 0.100598 0.500000 
302 1 0.020165 0.117663 0.500000 
303 1 0.030566 0.101214 0.500000 
304 1 0.040201 0.118287 0.500000 
305 1 0.050602 0.101839 0.500000 
306 1 0.060239 0.118920 0.500000 
307 1 0.070640 0.102476 0.500000 
308 1 0.080314 0.119568 0.500000 
309 1 0.090705 0.103120 0.500000 
310 1 0.100351 0.120262 0.500000 
311 1 0.110739 0.103814 0.500000 
312 1 0.120372 0.120991 0.500000 
313 1 0.130770 0.104510 0.500000 
314 1 0.140399 0.121719 0.500000 
315 1 0.150796 0.105247 0.500000 
316 1 0.160477 0.122433 0.500000 
317 1 0.170856 0.105974 0.500000 
318 1 0.180593 0.123160 0.500000 
319 1 0.190938 0.106710 0.500000 
320 1 0.200681 0.123931 0.500000 
321 1 0.210995 0.107436 0.500000 
322 1 0.220703 0.124700 0.500000 
323 1 0.231015 0.108200 0.500000 
324 1 0.240698 0.125484 0.500000 
325 1 0.251022 0.109004 0.500000 
326 1 0.260702 0.126300 0.500000 
327 1 0.271014 0.109814 0.500000 
328 1 0.280700 0.127127 0.500000 
329 1 0.290992 0.110603 0.500000 
330 1 0.300684 0.127933 0.500000 
331 1 0.310969 0.111368 0.500000 
332 1 0.320664 0.128719 0.500000 
333 1 0.330948 0.112131 0.500000 
334 1 0.340672 0.129502 0.500000 
335 1 0.350911 0.112878 0.500000 
336 1 0.360661 0.130268 0.500000 
337 1 0.370873 0.113609 0.500000 
338 1 0.380579 0.131049 0.500000 
339 1 0.390835 0.114388 0.500000 
340 1 0.400486 0.131862 0.500000 
341 1 0.410767 0.115197 0.500000 
342 1 0.420438 0.132636 0.500000 
343 1 0.430679 0.115939 0.500000 
344 1 0.440376 0.133369 0.500000 
345 1 0.450598 0.116646 0.500000 
346 1 0.460274 0.134114 0.500000 
347 1 0.470515 0.117380 0.500000 
348 1 0.480176 0.134859 0.500000 
349 1 0.490418 0.118081 0.500000 
350 1 0.500076 0.135582 0.500000 
351 1 0.510298 0.118742 0.500000 
352 1 0.519959 0.136248 0.500000 
353 1 0.530182 0.119379 0.500000 
354 1 0.539853 0.136867 0.500000 
355 1 0.550079 0.119956 0.500000 
356 1 0.559752 0.137443 0.500000 
357 1 0.569974 0.120486 0.500000 
358 1 0.579651 0.137940 0.500000 
359 1 0.589881 0.121003 0.500000 
360 1 0.599550 0.138434 0.500000 
361 1 0.609779 0.121511 0.500000 
362 1 0.619465 0.138888 0.500000 
363 1 0.629677 0.121958 0.500000 
364 1 0.639380 0.139268 0.500000 
365 1 0.649599 0.122335 0.500000 
366 1 0.659279 0.139630 0.500000 
367 1 0.669518 0.122721 0.500000 
368 1 0.679179 0.140004 0.500000 
369 1 0.689440 0.123131 0.500000 
370 1 0.699092 0.140412 0.500000 
371 1 0.709343 0.123521 0.500000 
372 1 0.719014 0.140785 0.500000 
373 1 0.729232 0.123835 0.500000 
374 1 0.738903 0.141117 0.500000 
375 1 0.749122 0.124137 0.500000 
376 1 0.758794 0.141394 0.500000 
377 1 0.769016 0.124402 0.500000 
378 1 0.778700 0.141605 0.500000 
379 1 0.788922 0.124605 0.500000 
380 1 0.798629 0.141782 0.500000 
381 1 0.808879 0.124849 0.500000 
382 1 0.818611 0.141989 0.500000 
383 1 0.828911 0.125091 0.500000 
384 1 0.838631 0.142222 0.500000 
385 1 0.848935 0.125303 0.500000 
386 1 0.858639 0.142442 0.500000 
387 1 0.868913 0.125492 0.500000 
388 1 0.878642 0.142599 0.500000 
389 1 0.888890 0.125704 0.500000 
390 1 0.898671 0.142772 0.500000 
391 1 0.908912 0.125941 0.500000 
392 1 0.918729 0.142980 0.500000 
393 1 0.928949 0.126136 0.500000 
394 1 0.938748 0.143207 0.500000 
395 1 0.948940 0.126349 0.500000 
396 1 0.958701 0.143428 0.500000 
397 1 0.968919 0.126487 0.500000 
398 1 0.978689 0.143555 0.500000 
399 1 0.988905 0.126616 0.500000 
400 1 0.998682 0.143674 0.500000 
401 1 0.009754 0.134110 0.500000 
402 1 0.019367 0.151171 0.500000 
403 1 0.029790 0.134729 0.500000 
404 1 0.039403 0.151799 0.500000 
405 1 0.049825 0.135360 0.500000 
406 1 0.059442 0.152437 0.500000 
407 1 0.069865 0.136003 0.500000 
408 1 0.079516 0.153142 0.500000 
409 1 0.089959 0.136711 0.500000 
410 1 0.099585 0.153876 0.500000 
411 1 0.110010 0.137443 0.500000 
412 1 0.119686 0.154584 0.500000 
413 1 0.130073 0.138170 0.500000 
414 1 0.139802 0.155297 0.500000 
415 1 0.150157 0.138882 0.500000 
416 1 0.159898 0.156039 0.500000 
417 1 0.170240 0.139601 0.500000 
418 1 0.179959 0.156822 0.500000 
419 1 0.190306 0.140388 0.500000 
420 1 0.200022 0.157631 0.500000 
421 1 0.210364 0.141187 0.500000 
422 1 0.220053 0.158475 0.500000 
423 1 0.230386 0.141990 0.500000 
424 1 0.240051 0.159311 0.500000 
425 1 0.250379 0.142797 0.500000 
426 1 0.260051 0.160131 0.500000 
427 1 0.270378 0.143621 0.500000 
428 1 0.280081 0.160927 0.500000 
429 1 0.290406 0.144439 0.500000 
430 1 0.300122 0.161745 0.500000 
431 1 0.310432 0.145255 0.500000 
432 1 0.320135 0.162585 0.500000 
433 1 0.330431 0.146062 0.500000 
434 1 0.340119 0.163410 0.500000 
435 1 0.350412 0.146866 0.500000 
436 1 0.360086 0.164245 0.500000 
437 1 0.370362 0.147690 0.500000 
438 1 0.380030 0.165093 0.500000 
439 1 0.390279 0.148510 0.500000 
440 1 0.399964 0.165927 0.500000 
441 1 0.410207 0.149289 0.500000 
442 1 0.419898 0.166736 0.500000 
443 1 0.430150 0.150062 0.500000 
444 1 0.439826 0.167543 0.500000 
445 1 0.450075 0.150839 0.500000 
446 1 0.459738 0.168349 0.500000 
447 1 0.469976 0.151594 0.500000 
448 1 0.479627 0.169139 0.500000 
449 1 0.489871 0.152348 0.500000 
450 1 0.499529 0.169870 0.500000 
451 1 0.509778 0.153070 0.500000 
452 1 0.519442 0.170560 0.500000 
453 1 0.529668 0.153725 0.500000 
454 1 0.539335 0.171196 0.500000 
455 1 0.549547 0.154330 0.500000 
456 1 0.559219 0.171744 0.500000 
457 1 0.569446 0.154869 0.500000 
458 1 0.579097 0.172279 0.500000 
459 1 0.589327 0.155364 0.500000 
460 1 0.598958 0.172769 0.500000 
461 1 0.609203 0.155814 0.500000 
462 1 0.618807 0.173194 0.500000 
463 1 0.629105 0.156223 0.500000 
464 1 0.638693 0.173569 0.500000 
465 1 0.649025 0.156601 0.500000 
466 1 0.658614 0.173952 0.500000 
467 1 0.668931 0.156958 0.500000 
468 1 0.678535 0.174291 0.500000 
469 1 0.688827 0.157310 0.500000 
470 1 0.698441 0.174606 0.500000 
471 1 0.708754 0.157684 0.500000 
472 1 0.718379 0.174974 0.500000 
473 1 0.728684 0.158074 0.500000 
474 1 0.738351 0.175323 0.500000 
475 1 0.748611 0.158375 0.500000 
476 1 0.758296 0.175612 0.500000 
477 1 0.768531 0.158621 0.500000 
478 1 0.778245 0.175842 0.500000 
479 1 0.788460 0.158814 0.500000 
480 1 0.798189 0.176072 0.500000 
481 1 0.808398 0.158992 0.500000 
482 1 0.818158 0.176201 0.500000 
483 1 0.828388 0.159171 0.500000 
484 1 0.838147 0.176353 0.500000 
485 1 0.848391 0.159384 0.500000 
486 1 0.858186 0.176482 0.500000 
487 1 0.868401 0.159542 0.500000 
488 1 0.878214 0.176620 0.500000 
489 1 0.888399 0.159651 0.500000 
490 1 0.898210 0.176719 0.500000 
491 1 0.908435 0.159811 0.500000 
492 1 0.918203 0.176936 0.500000 
493 1 0.928471 0.160067 0.500000 
494 1 0.938205 0.177234 0.500000 
495 1 0.948477 0.160370 0.500000 
496 1 0.958249 0.177440 0.500000 
497 1 0.968470 0.160496 0.500000 
498 1 0.978251 0.177553 0.500000 
499 1 0.988467 0.160611 0.500000 
500 1 0.998258 0.177659 0.500000 
501 1 0.008938 0.167610 0.500000 
502 1 0.018532 0.184668 0.500000 
503 1 0.028972 0.168234 0.500000 
504 1 0.038566 0.185299 0.500000 
505 1 0.049008 0.168868 0.500000 
506 1 0.058602 0.185942 0.500000 
507 1 0.069047 0.169517 0.500000 
508 1 0.078698 0.186653 0.500000 
509 1 0.089163 0.170286 0.500000 
510 1 0.098820 0.187390 0.500000 
511 1 0.109279 0.171002 0.500000 
512 1 0.118936 0.188122 0.500000 
513 1 0.129374 0.171709 0.500000 
514 1 0.139046 0.188837 0.500000 
515 1 0.149476 0.172437 0.500000 
516 1 0.159140 0.189611 0.500000 
517 1 0.169577 0.173219 0.500000 
518 1 0.179194 0.190453 0.500000 
519 1 0.189654 0.174052 0.500000 
520 1 0.199241 0.191338 0.500000 
521 1 0.209687 0.174928 0.500000 
522 1 0.219307 0.192201 0.500000 
523 1 0.229708 0.175784 0.500000 
524 1 0.239359 0.193045 0.500000 
525 1 0.249730 0.176611 0.500000 
526 1 0.259379 0.193882 0.500000 
527 1 0.269757 0.177428 0.500000 
528 1 0.279389 0.194732 0.500000 
529 1 0.289765 0.178244 0.500000 
530 1 0.299405 0.195579 0.500000 
531 1 0.309777 0.179087 0.500000 
532 1 0.319436 0.196458 0.500000 
533 1 0.329796 0.179944 0.500000 
534 1 0.339452 0.197385 0.500000 
535 1 0.349786 0.180809 0.500000 
536 1 0.359445 0.198308 0.500000 
537 1 0.369744 0.181686 0.500000 
538 1 0.379441 0.199167 0.500000 
539 1 0.389694 0.182533 0.500000 
540 1 0.399417 0.200008 0.500000 
541 1 0.409661 0.183380 0.500000 
542 1 0.419350 0.200903 0.500000 
543 1 0.429603 0.184240 0.500000 
544 1 0.439269 0.201807 0.500000 
545 1 0.449497 0.185080 0.500000 
546 1 0.459163 0.202651 0.500000 
547 1 0.469378 0.185902 0.500000 
548 1 0.479053 0.203454 0.500000 
549 1 0.489283 0.186683 0.500000 
550 1 0.498951 0.204260 0.500000 
551 1 0.509189 0.187412 0.500000 
552 1 0.518845 0.204992 0.500000 
553 1 0.529098 0.188084 0.500000 
554 1 0.538733 0.205606 0.500000 
555 1 0.549011 0.188673 0.500000 
556 1 0.558624 0.206164 0.500000 
557 1 0.568894 0.189208 0.500000 
558 1 0.578517 0.206658 0.500000 
559 1 0.588766 0.189701 0.500000 
560 1 0.598388 0.207110 0.500000 
561 1 0.608625 0.190159 0.500000 
562 1 0.618264 0.207493 0.500000 
563 1 0.628485 0.190542 0.500000 
564 1 0.638134 0.207878 0.500000 
565 1 0.648354 0.190906 0.500000 
566 1 0.658015 0.208241 0.500000 
567 1 0.668269 0.191272 0.500000 
568 1 0.677934 0.208633 0.500000 
569 1 0.688199 0.191634 0.500000 
570 1 0.697900 0.209008 0.500000 
571 1 0.708128 0.191949 0.500000 
572 1 0.717853 0.209329 0.500000 
573 1 0.728080 0.192271 0.500000 
574 1 0.737806 0.209598 0.500000 
575 1 0.748041 0.192594 0.500000 
576 1 0.757750 0.209851 0.500000 
577 1 0.767990 0.192843 0.500000 
578 1 0.777683 0.210079 0.500000 
579 1 0.787926 0.193099 0.500000 
580 1 0.797654 0.210266 0.500000 
581 1 0.807903 0.193269 0.500000 
582 1 0.817649 0.210431 0.500000 
583 1 0.827879 0.193390 0.500000 
584 1 0.837661 0.210513 0.500000 
585 1 0.847894 0.193462 0.500000 
586 1 0.857686 0.210583 0.500000 
587 1 0.867942 0.193580 0.500000 
588 1 0.877730 0.210708 0.500000 
589 1 0.888005 0.193725 0.500000 
590 1 0.897752 0.210910 0.500000 
591 1 0.908013 0.193882 0.500000 
592 1 0.917729 0.211094 0.500000 
593 1 0.928021 0.194129 0.500000 
594 1 0.937752 0.211309 0.500000 
595 1 0.948021 0.194385 0.500000 
596 1 0.957807 0.211443 0.500000 
597 1 0.968031 0.194496 0.500000 
598 1 0.977825 0.211543 0.500000 
599 1 0.988043 0.194599 0.500000 
600 1 0.997847 0.211634 0.500000 
601 1 0.008083 0.201103 0.500000 
602 1 0.017654 0.218157 0.500000 
603 1 0.028113 0.201727 0.500000 
604 1 0.037684 0.218790 0.500000 
605 1 0.048147 0.202367 0.500000 
606 1 0.057718 0.219436 0.500000 
607 1 0.068185 0.203017 0.500000 
608 1 0.077830 0.220136 0.500000 
609 1 0.088317 0.203764 0.500000 
610 1 0.097966 0.220864 0.500000 
611 1 0.108442 0.204495 0.500000 
612 1 0.118099 0.221602 0.500000 
613 1 0.128564 0.205220 0.500000 
614 1 0.138200 0.222385 0.500000 
615 1 0.148660 0.206003 0.500000 
616 1 0.158276 0.223235 0.500000 
617 1 0.168737 0.206858 0.500000 
618 1 0.178351 0.224099 0.500000 
619 1 0.188797 0.207723 0.500000 
620 1 0.198403 0.224960 0.500000 
621 1 0.208856 0.208578 0.500000 
622 1 0.218435 0.225839 0.500000 
623 1 0.228908 0.209449 0.500000 
624 1 0.238465 0.226761 0.500000 
625 1 0.248938 0.210324 0.500000 
626 1 0.258507 0.227643 0.500000 
627 1 0.268964 0.211186 0.500000 
628 1 0.278549 0.228517 0.500000 
629 1 0.289000 0.212049 0.500000 
630 1 0.298569 0.229414 0.500000 
631 1 0.309031 0.212946 0.500000 
632 1 0.318582 0.230358 0.500000 
633 1 0.329044 0.213901 0.500000 
634 1 0.338608 0.231322 0.500000 
635 1 0.349061 0.214856 0.500000 
636 1 0.358633 0.232249 0.500000 
637 1 0.369094 0.215746 0.500000 
638 1 0.378624 0.233201 0.500000 
639 1 0.389076 0.216629 0.500000 
640 1 0.398557 0.234193 0.500000 
641 1 0.408995 0.217567 0.500000 
642 1 0.418485 0.235171 0.500000 
643 1 0.428911 0.218495 0.500000 
644 1 0.438420 0.236117 0.500000 
645 1 0.448846 0.219399 0.500000 
646 1 0.458313 0.237057 0.500000 
647 1 0.468751 0.220271 0.500000 
648 1 0.478181 0.237964 0.500000 
649 1 0.488607 0.221102 0.500000 
650 1 0.498059 0.238753 0.500000 
651 1 0.508488 0.221865 0.500000 
652 1 0.517946 0.239473 0.500000 
653 1 0.528380 0.222545 0.500000 
654 1 0.537830 0.240131 0.500000 
655 1 0.548235 0.223132 0.500000 
656 1 0.557687 0.240675 0.500000 
657 1 0.568087 0.223633 0.500000 
658 1 0.577515 0.241146 0.500000 
659 1 0.587958 0.224098 0.500000 
660 1 0.597385 0.241531 0.500000 
661 1 0.607866 0.224490 0.500000 
662 1 0.617293 0.241906 0.500000 
663 1 0.627755 0.224881 0.500000 
664 1 0.637222 0.242280 0.500000 
665 1 0.647641 0.225256 0.500000 
666 1 0.657139 0.242666 0.500000 
667 1 0.667542 0.225613 0.500000 
668 1 0.677071 0.242979 0.500000 
669 1 0.687508 0.225981 0.500000 
670 1 0.697032 0.243310 0.500000 
671 1 0.707496 0.226376 0.500000 
672 1 0.717043 0.243637 0.500000 
673 1 0.727480 0.226654 0.500000 
674 1 0.737049 0.243919 0.500000 
675 1 0.747457 0.226895 0.500000 
676 1 0.757089 0.244125 0.500000 
677 1 0.767433 0.227099 0.500000 
678 1 0.777116 0.244330 0.500000 
679 1 0.787385 0.227260 0.500000 
680 1 0.797123 0.244418 0.500000 
681 1 0.807377 0.227409 0.500000 
682 1 0.817090 0.244573 0.500000 
683 1 0.827383 0.227565 0.500000 
684 1 0.837097 0.244693 0.500000 
685 1 0.847405 0.227649 0.500000 
686 1 0.857089 0.244828 0.500000 
687 1 0.867418 0.227739 0.500000 
688 1 0.877112 0.244885 0.500000 
689 1 0.887471 0.227890 0.500000 
690 1 0.897183 0.245074 0.500000 
691 1 0.907491 0.228122 0.500000 
692 1 0.917279 0.245232 0.500000 
693 1 0.927494 0.228277 0.500000 
694 1 0.937334 0.245355 0.500000 
695 1 0.947580 0.228392 0.500000 
696 1 0.957383 0.245436 0.500000 
697 1 0.967605 0.228489 0.500000 
698 1 0.977417 0.245522 0.500000 
699 1 0.987634 0.228577 0.500000 
700 1 0.997455 0.245600 0.500000 
701 1 0.007189 0.234587 0.500000 
702 1 0.016737 0.251640 0.500000 
703 1 0.027214 0.235215 0.500000 
704 1 0.036760 0.252274 0.500000 
705 1 0.047243 0.235854 0.500000 
706 1 0.056787 0.252921 0.500000 
707 1 0.067275 0.236508 0.500000 
708 1 0.076889 0.253587 0.500000 
709 1 0.087406 0.237219 0.500000 
710 1 0.097013 0.254317 0.500000 
711 1 0.107554 0.237964 0.500000 
712 1 0.117135 0.255093 0.500000 
713 1 0.127699 0.238755 0.500000 
714 1 0.137232 0.255939 0.500000 
715 1 0.147784 0.239596 0.500000 
716 1 0.157315 0.256799 0.500000 
717 1 0.167858 0.240457 0.500000 
718 1 0.177424 0.257697 0.500000 
719 1 0.187931 0.241338 0.500000 
720 1 0.197509 0.258620 0.500000 
721 1 0.207980 0.242234 0.500000 
722 1 0.217554 0.259562 0.500000 
723 1 0.227998 0.243171 0.500000 
724 1 0.237589 0.260493 0.500000 
725 1 0.248036 0.244084 0.500000 
726 1 0.257629 0.261403 0.500000 
727 1 0.268081 0.244973 0.500000 
728 1 0.277665 0.262335 0.500000 
729 1 0.288108 0.245885 0.500000 
730 1 0.297689 0.263292 0.500000 
731 1 0.308119 0.246817 0.500000 
732 1 0.317724 0.264260 0.500000 
733 1 0.328140 0.247776 0.500000 
734 1 0.337761 0.265237 0.500000 
735 1 0.348175 0.248754 0.500000 
736 1 0.357766 0.266287 0.500000 
737 1 0.368169 0.249741 0.500000 
738 1 0.377721 0.267355 0.500000 
739 1 0.388125 0.250788 0.500000 
740 1 0.397655 0.268394 0.500000 
741 1 0.408064 0.251790 0.500000 
742 1 0.417549 0.269423 0.500000 
743 1 0.427983 0.252776 0.500000 
744 1 0.437413 0.270484 0.500000 
745 1 0.447864 0.253797 0.500000 
746 1 0.457280 0.271511 0.500000 
747 1 0.467735 0.254749 0.500000 
748 1 0.477147 0.272426 0.500000 
749 1 0.487622 0.255610 0.500000 
750 1 0.497003 0.273289 0.500000 
751 1 0.507505 0.256419 0.500000 
752 1 0.516892 0.274025 0.500000 
753 1 0.527398 0.257115 0.500000 
754 1 0.536787 0.274661 0.500000 
755 1 0.547299 0.257721 0.500000 
756 1 0.556676 0.275273 0.500000 
757 1 0.567153 0.258250 0.500000 
758 1 0.576567 0.275745 0.500000 
759 1 0.587002 0.258629 0.500000 
760 1 0.596464 0.276055 0.500000 
761 1 0.606884 0.258953 0.500000 
762 1 0.616387 0.276335 0.500000 
763 1 0.626792 0.259282 0.500000 
764 1 0.636313 0.276653 0.500000 
765 1 0.646726 0.259659 0.500000 
766 1 0.656281 0.276992 0.500000 
767 1 0.666704 0.260028 0.500000 
768 1 0.676287 0.277379 0.500000 
769 1 0.686652 0.260338 0.500000 
770 1 0.696262 0.277656 0.500000 
771 1 0.706600 0.260588 0.500000 
772 1 0.716226 0.277856 0.500000 
773 1 0.726600 0.260870 0.500000 
774 1 0.736255 0.278081 0.500000 
775 1 0.746654 0.261106 0.500000 
776 1 0.756325 0.278296 0.500000 
777 1 0.766721 0.261346 0.500000 
778 1 0.776425 0.278486 0.500000 
779 1 0.786814 0.261484 0.500000 
780 1 0.796520 0.278650 0.500000 
781 1 0.806854 0.261618 0.500000 
782 1 0.816595 0.278752 0.500000 
783 1 0.826871 0.261706 0.500000 
784 1 0.836627 0.278858 0.500000 
785 1 0.846872 0.261864 0.500000 
786 1 0.856683 0.278955 0.500000 
787 1 0.866888 0.261932 0.500000 
788 1 0.876704 0.279024 0.500000 
789 1 0.886885 0.262030 0.500000 
790 1 0.896735 0.279101 0.500000 
791 1 0.906978 0.262169 0.500000 
792 1 0.916854 0.279234 0.500000 
793 1 0.927078 0.262280 0.500000 
794 1 0.936933 0.279340 0.500000 
795 1 0.947159 0.262387 0.500000 
796 1 0.956982 0.279417 0.500000 
797 1 0.967200 0.262468 0.500000 
798 1 0.977036 0.279488 0.500000 
799 1 0.987245 0.262544 0.500000 
800 1 0.997089 0.279555 0.500000 
801 1 0.006256 0.268068 0.500000 
802 1 0.015779 0.285121 0.500000 
803 1 0.026272 0.268696 0.500000 
804 1 0.035792 0.285753 0.500000 
805 1 0.046292 0.269335 0.500000 
806 1 0.055810 0.286400 0.500000 
807 1 0.066319 0.269991 0.500000 
808 1 0.075872 0.287064 0.500000 
809 1 0.086444 0.270681 0.500000 
810 1 0.095974 0.287782 0.500000 
811 1 0.106556 0.271430 0.500000 
812 1 0.116054 0.288581 0.500000 
813 1 0.126655 0.272259 0.500000 
814 1 0.136157 0.289464 0.500000 
815 1 0.146757 0.273146 0.500000 
816 1 0.156280 0.290356 0.500000 
817 1 0.166856 0.274024 0.500000 
818 1 0.176382 0.291271 0.500000 
819 1 0.186953 0.274966 0.500000 
820 1 0.196481 0.292227 0.500000 
821 1 0.207031 0.275911 0.500000 
822 1 0.216548 0.293187 0.500000 
823 1 0.227090 0.276855 0.500000 
824 1 0.236585 0.294169 0.500000 
825 1 0.247134 0.277803 0.500000 
826 1 0.256624 0.295176 0.500000 
827 1 0.267162 0.278769 0.500000 
828 1 0.276690 0.296154 0.500000 
829 1 0.287200 0.279742 0.500000 
830 1 0.296767 0.297111 0.500000 
831 1 0.307264 0.280709 0.500000 
832 1 0.316826 0.298111 0.500000 
833 1 0.327317 0.281699 0.500000 
834 1 0.336838 0.299183 0.500000 
835 1 0.347319 0.282760 0.500000 
836 1 0.356803 0.300354 0.500000 
837 1 0.367276 0.283884 0.500000 
838 1 0.376768 0.301502 0.500000 
839 1 0.387214 0.284979 0.500000 
840 1 0.396700 0.302640 0.500000 
841 1 0.407138 0.286053 0.500000 
842 1 0.416548 0.303805 0.500000 
843 1 0.426985 0.287173 0.500000 
844 1 0.436408 0.304906 0.500000 
845 1 0.446824 0.288246 0.500000 
846 1 0.456275 0.305936 0.500000 
847 1 0.466690 0.289217 0.500000 
848 1 0.476152 0.306901 0.500000 
849 1 0.486548 0.290099 0.500000 
850 1 0.496026 0.307743 0.500000 
851 1 0.506422 0.290875 0.500000 
852 1 0.515896 0.308524 0.500000 
853 1 0.526276 0.291577 0.500000 
854 1 0.535764 0.309154 0.500000 
855 1 0.546142 0.292175 0.500000 
856 1 0.555602 0.309684 0.500000 
857 1 0.566049 0.292739 0.500000 
858 1 0.575509 0.310181 0.500000 
859 1 0.585976 0.293185 0.500000 
860 1 0.595476 0.310593 0.500000 
861 1 0.605911 0.293459 0.500000 
862 1 0.615423 0.310846 0.500000 
863 1 0.625868 0.293716 0.500000 
864 1 0.635379 0.311086 0.500000 
865 1 0.645849 0.294014 0.500000 
866 1 0.655394 0.311349 0.500000 
867 1 0.665863 0.294341 0.500000 
868 1 0.675440 0.311644 0.500000 
869 1 0.685894 0.294680 0.500000 
870 1 0.695497 0.311919 0.500000 
871 1 0.705887 0.294904 0.500000 
872 1 0.715537 0.312084 0.500000 
873 1 0.725906 0.295065 0.500000 
874 1 0.735596 0.312203 0.500000 
875 1 0.746008 0.295250 0.500000 
876 1 0.755749 0.312372 0.500000 
877 1 0.766133 0.295443 0.500000 
878 1 0.775942 0.312557 0.500000 
879 1 0.786243 0.295608 0.500000 
880 1 0.796071 0.312737 0.500000 
881 1 0.806353 0.295778 0.500000 