ITEM: TIMESTEP
4000
ITEM: NUMBER OF ATOMS
2850
ITEM: BOX BOUNDS ss ss pp
-28.0536 28.3253 
-28.9988 28.9984 
-0.5 0.5 
ITEM: ATOMS id type xs ys zs
1 1 0.012661 0.000000 0.500000 
2 1 0.022340 0.017073 0.500000 
3 1 0.032688 0.000597 0.500000 
4 1 0.042369 0.017677 0.500000 
5 1 0.052715 0.001202 0.500000 
6 1 0.062397 0.018289 0.500000 
7 1 0.072742 0.001814 0.500000 
8 1 0.082426 0.018911 0.500000 
9 1 0.092767 0.002433 0.500000 
10 1 0.102455 0.019539 0.500000 
11 1 0.112794 0.003060 0.500000 
12 1 0.122484 0.020177 0.500000 
13 1 0.132817 0.003697 0.500000 
14 1 0.142511 0.020822 0.500000 
15 1 0.152841 0.004338 0.500000 
16 1 0.162536 0.021475 0.500000 
17 1 0.172861 0.004988 0.500000 
18 1 0.182559 0.022136 0.500000 
19 1 0.192879 0.005643 0.500000 
20 1 0.202579 0.022803 0.500000 
21 1 0.212895 0.006305 0.500000 
22 1 0.222596 0.023475 0.500000 
23 1 0.232906 0.006973 0.500000 
24 1 0.242610 0.024155 0.500000 
25 1 0.252912 0.007645 0.500000 
26 1 0.262618 0.024839 0.500000 
27 1 0.272914 0.008319 0.500000 
28 1 0.282622 0.025527 0.500000 
29 1 0.292911 0.008997 0.500000 
30 1 0.302619 0.026217 0.500000 
31 1 0.312901 0.009676 0.500000 
32 1 0.322610 0.026908 0.500000 
33 1 0.332885 0.010356 0.500000 
34 1 0.342593 0.027600 0.500000 
35 1 0.352861 0.011033 0.500000 
36 1 0.362570 0.028289 0.500000 
37 1 0.372830 0.011707 0.500000 
38 1 0.382537 0.028974 0.500000 
39 1 0.392791 0.012376 0.500000 
40 1 0.402497 0.029655 0.500000 
41 1 0.412744 0.013039 0.500000 
42 1 0.422448 0.030326 0.500000 
43 1 0.432688 0.013694 0.500000 
44 1 0.442390 0.030989 0.500000 
45 1 0.452624 0.014337 0.500000 
46 1 0.462324 0.031639 0.500000 
47 1 0.472553 0.014968 0.500000 
48 1 0.482250 0.032276 0.500000 
49 1 0.492474 0.015584 0.500000 
50 1 0.502167 0.032896 0.500000 
51 1 0.512388 0.016184 0.500000 
52 1 0.522078 0.033498 0.500000 
53 1 0.532295 0.016766 0.500000 
54 1 0.541983 0.034081 0.500000 
55 1 0.552198 0.017330 0.500000 
56 1 0.561882 0.034643 0.500000 
57 1 0.572095 0.017873 0.500000 
58 1 0.581777 0.035184 0.500000 
59 1 0.591989 0.018396 0.500000 
60 1 0.601668 0.035702 0.500000 
61 1 0.611880 0.018896 0.500000 
62 1 0.621558 0.036195 0.500000 
63 1 0.631769 0.019373 0.500000 
64 1 0.641446 0.036666 0.500000 
65 1 0.651657 0.019829 0.500000 
66 1 0.661334 0.037110 0.500000 
67 1 0.671546 0.020261 0.500000 
68 1 0.681223 0.037533 0.500000 
69 1 0.691436 0.020670 0.500000 
70 1 0.701115 0.037931 0.500000 
71 1 0.711328 0.021058 0.500000 
72 1 0.721007 0.038307 0.500000 
73 1 0.731222 0.021423 0.500000 
74 1 0.740905 0.038660 0.500000 
75 1 0.751120 0.021768 0.500000 
76 1 0.760806 0.038993 0.500000 
77 1 0.771021 0.022094 0.500000 
78 1 0.780711 0.039305 0.500000 
79 1 0.790927 0.022399 0.500000 
80 1 0.800620 0.039597 0.500000 
81 1 0.810837 0.022687 0.500000 
82 1 0.820536 0.039873 0.500000 
83 1 0.830751 0.022958 0.500000 
84 1 0.840456 0.040130 0.500000 
85 1 0.850671 0.023211 0.500000 
86 1 0.860382 0.040369 0.500000 
87 1 0.870595 0.023449 0.500000 
88 1 0.880312 0.040595 0.500000 
89 1 0.890525 0.023674 0.500000 
90 1 0.900248 0.040807 0.500000 
91 1 0.910459 0.023884 0.500000 
92 1 0.920188 0.041005 0.500000 
93 1 0.930398 0.024080 0.500000 
94 1 0.940134 0.041192 0.500000 
95 1 0.950341 0.024267 0.500000 
96 1 0.960084 0.041368 0.500000 
97 1 0.970290 0.024443 0.500000 
98 1 0.980040 0.041531 0.500000 
99 1 0.990243 0.024606 0.500000 
100 1 1.000000 0.041686 0.500000 
101 1 0.011983 0.033545 0.500000 
102 1 0.021650 0.050615 0.500000 
103 1 0.032014 0.034148 0.500000 
104 1 0.041680 0.051227 0.500000 
105 1 0.052044 0.034760 0.500000 
106 1 0.061715 0.051847 0.500000 
107 1 0.072075 0.035381 0.500000 
108 1 0.081754 0.052482 0.500000 
109 1 0.092107 0.036012 0.500000 
110 1 0.101792 0.053126 0.500000 
111 1 0.112138 0.036650 0.500000 
112 1 0.121828 0.053781 0.500000 
113 1 0.132168 0.037297 0.500000 
114 1 0.141863 0.054443 0.500000 
115 1 0.152197 0.037952 0.500000 
116 1 0.161896 0.055112 0.500000 
117 1 0.172226 0.038617 0.500000 
118 1 0.181925 0.055791 0.500000 
119 1 0.192251 0.039288 0.500000 
120 1 0.201951 0.056477 0.500000 
121 1 0.212274 0.039967 0.500000 
122 1 0.221974 0.057172 0.500000 
123 1 0.232293 0.040654 0.500000 
124 1 0.241991 0.057869 0.500000 
125 1 0.252309 0.041345 0.500000 
126 1 0.262003 0.058574 0.500000 
127 1 0.272318 0.042042 0.500000 
128 1 0.282007 0.059283 0.500000 
129 1 0.292324 0.042743 0.500000 
130 1 0.302005 0.059998 0.500000 
131 1 0.312323 0.043447 0.500000 
132 1 0.321998 0.060716 0.500000 
133 1 0.332314 0.044150 0.500000 
134 1 0.341981 0.061429 0.500000 
135 1 0.352297 0.044856 0.500000 
136 1 0.361955 0.062145 0.500000 
137 1 0.372273 0.045557 0.500000 
138 1 0.381922 0.062858 0.500000 
139 1 0.392240 0.046254 0.500000 
140 1 0.401882 0.063567 0.500000 
141 1 0.412198 0.046944 0.500000 
142 1 0.421833 0.064263 0.500000 
143 1 0.432147 0.047626 0.500000 
144 1 0.441775 0.064952 0.500000 
145 1 0.452087 0.048297 0.500000 
146 1 0.461707 0.065625 0.500000 
147 1 0.472018 0.048954 0.500000 
148 1 0.481635 0.066288 0.500000 
149 1 0.491940 0.049595 0.500000 
150 1 0.501552 0.066928 0.500000 
151 1 0.511855 0.050220 0.500000 
152 1 0.521463 0.067550 0.500000 
153 1 0.531762 0.050823 0.500000 
154 1 0.541369 0.068146 0.500000 
155 1 0.551663 0.051406 0.500000 
156 1 0.561269 0.068724 0.500000 
157 1 0.571560 0.051966 0.500000 
158 1 0.581167 0.069274 0.500000 
159 1 0.591452 0.052503 0.500000 
160 1 0.601065 0.069807 0.500000 
161 1 0.611341 0.053013 0.500000 
162 1 0.620961 0.070304 0.500000 
163 1 0.631230 0.053499 0.500000 
164 1 0.640856 0.070773 0.500000 
165 1 0.651117 0.053960 0.500000 
166 1 0.660750 0.071225 0.500000 
167 1 0.671006 0.054396 0.500000 
168 1 0.680647 0.071648 0.500000 
169 1 0.690897 0.054806 0.500000 
170 1 0.700548 0.072045 0.500000 
171 1 0.710789 0.055192 0.500000 
172 1 0.720450 0.072418 0.500000 
173 1 0.730685 0.055554 0.500000 
174 1 0.740355 0.072762 0.500000 
175 1 0.750586 0.055894 0.500000 
176 1 0.760265 0.073088 0.500000 
177 1 0.770490 0.056213 0.500000 
178 1 0.780180 0.073395 0.500000 
179 1 0.790400 0.056511 0.500000 
180 1 0.800101 0.073681 0.500000 
181 1 0.810316 0.056789 0.500000 
182 1 0.820026 0.073946 0.500000 
183 1 0.830238 0.057049 0.500000 
184 1 0.839955 0.074196 0.500000 
185 1 0.850164 0.057294 0.500000 
186 1 0.859888 0.074427 0.500000 
187 1 0.870095 0.057522 0.500000 
188 1 0.879826 0.074644 0.500000 
189 1 0.890032 0.057734 0.500000 
190 1 0.899771 0.074847 0.500000 
191 1 0.909975 0.057934 0.500000 
192 1 0.919718 0.075040 0.500000 
193 1 0.929922 0.058120 0.500000 
194 1 0.939669 0.075218 0.500000 
195 1 0.949875 0.058294 0.500000 
196 1 0.959621 0.075390 0.500000 
197 1 0.969833 0.058458 0.500000 
198 1 0.979588 0.075542 0.500000 
199 1 0.989796 0.058613 0.500000 
200 1 0.999557 0.075685 0.500000 
201 1 0.011275 0.067077 0.500000 
202 1 0.020924 0.084144 0.500000 
203 1 0.031308 0.067688 0.500000 
204 1 0.040959 0.084763 0.500000 
205 1 0.051342 0.068307 0.500000 
206 1 0.060994 0.085390 0.500000 
207 1 0.071376 0.068936 0.500000 
208 1 0.081043 0.086039 0.500000 
209 1 0.091424 0.069588 0.500000 
210 1 0.101092 0.086708 0.500000 
211 1 0.111467 0.070251 0.500000 
212 1 0.121138 0.087383 0.500000 
213 1 0.131509 0.070919 0.500000 
214 1 0.141183 0.088064 0.500000 
215 1 0.151550 0.071595 0.500000 
216 1 0.161224 0.088757 0.500000 
217 1 0.171582 0.072279 0.500000 
218 1 0.181258 0.089454 0.500000 
219 1 0.191612 0.072972 0.500000 
220 1 0.201291 0.090162 0.500000 
221 1 0.211640 0.073672 0.500000 
222 1 0.221319 0.090881 0.500000 
223 1 0.231664 0.074382 0.500000 
224 1 0.241342 0.091603 0.500000 
225 1 0.251680 0.075095 0.500000 
226 1 0.261356 0.092337 0.500000 
227 1 0.271686 0.075817 0.500000 
228 1 0.281360 0.093071 0.500000 
229 1 0.291684 0.076538 0.500000 
230 1 0.301354 0.093806 0.500000 
231 1 0.311679 0.077264 0.500000 
232 1 0.321341 0.094549 0.500000 
233 1 0.331667 0.077997 0.500000 
234 1 0.341324 0.095293 0.500000 
235 1 0.351644 0.078725 0.500000 
236 1 0.361298 0.096035 0.500000 
237 1 0.371614 0.079452 0.500000 
238 1 0.381262 0.096776 0.500000 
239 1 0.391575 0.080177 0.500000 
240 1 0.401219 0.097507 0.500000 
241 1 0.411532 0.080893 0.500000 
242 1 0.421165 0.098232 0.500000 
243 1 0.431475 0.081597 0.500000 
244 1 0.441100 0.098947 0.500000 
245 1 0.451406 0.082292 0.500000 
246 1 0.461029 0.099639 0.500000 
247 1 0.471331 0.082965 0.500000 
248 1 0.480951 0.100318 0.500000 
249 1 0.491253 0.083631 0.500000 
250 1 0.500869 0.100982 0.500000 
251 1 0.511165 0.084268 0.500000 
252 1 0.520780 0.101615 0.500000 
253 1 0.531073 0.084881 0.500000 
254 1 0.540688 0.102221 0.500000 
255 1 0.550979 0.085477 0.500000 
256 1 0.560597 0.102812 0.500000 
257 1 0.570882 0.086045 0.500000 
258 1 0.580505 0.103370 0.500000 
259 1 0.590782 0.086588 0.500000 
260 1 0.600409 0.103901 0.500000 
261 1 0.610686 0.087107 0.500000 
262 1 0.620315 0.104402 0.500000 
263 1 0.630587 0.087587 0.500000 
264 1 0.640219 0.104872 0.500000 
265 1 0.650485 0.088048 0.500000 
266 1 0.660124 0.105321 0.500000 
267 1 0.670386 0.088487 0.500000 
268 1 0.680033 0.105739 0.500000 
269 1 0.690293 0.088893 0.500000 
270 1 0.699946 0.106131 0.500000 
271 1 0.710202 0.089275 0.500000 
272 1 0.719863 0.106499 0.500000 
273 1 0.730115 0.089633 0.500000 
274 1 0.739784 0.106841 0.500000 
275 1 0.750029 0.089963 0.500000 
276 1 0.759710 0.107159 0.500000 
277 1 0.769949 0.090278 0.500000 
278 1 0.779638 0.107461 0.500000 
279 1 0.789874 0.090570 0.500000 
280 1 0.799572 0.107736 0.500000 
281 1 0.809804 0.090841 0.500000 
282 1 0.819509 0.107996 0.500000 
283 1 0.829735 0.091097 0.500000 
284 1 0.839449 0.108235 0.500000 
285 1 0.849673 0.091332 0.500000 
286 1 0.859391 0.108463 0.500000 
287 1 0.869614 0.091555 0.500000 
288 1 0.879340 0.108678 0.500000 
289 1 0.889558 0.091760 0.500000 
290 1 0.899292 0.108872 0.500000 
291 1 0.909509 0.091956 0.500000 
292 1 0.919247 0.109062 0.500000 
293 1 0.929461 0.092142 0.500000 
294 1 0.939201 0.109246 0.500000 
295 1 0.949407 0.092323 0.500000 
296 1 0.959160 0.109410 0.500000 
297 1 0.969375 0.092475 0.500000 
298 1 0.979136 0.109550 0.500000 
299 1 0.989349 0.092617 0.500000 
300 1 0.999117 0.109681 0.500000 
301 1 0.010532 0.100598 0.500000 
302 1 0.020165 0.117663 0.500000 
303 1 0.030566 0.101214 0.500000 
304 1 0.040201 0.118287 0.500000 
305 1 0.050602 0.101839 0.500000 
306 1 0.060239 0.118920 0.500000 
307 1 0.070640 0.102476 0.500000 
308 1 0.080293 0.119583 0.500000 
309 1 0.090700 0.103151 0.500000 
310 1 0.100348 0.120271 0.500000 
311 1 0.110754 0.103834 0.500000 
312 1 0.120404 0.120964 0.500000 
313 1 0.130803 0.104522 0.500000 
314 1 0.140456 0.121667 0.500000 
315 1 0.150847 0.105218 0.500000 
316 1 0.160503 0.122382 0.500000 
317 1 0.170890 0.105926 0.500000 
318 1 0.180551 0.123101 0.500000 
319 1 0.190929 0.106637 0.500000 
320 1 0.200589 0.123834 0.500000 
321 1 0.210963 0.107366 0.500000 
322 1 0.220623 0.124577 0.500000 
323 1 0.230993 0.108100 0.500000 
324 1 0.240651 0.125331 0.500000 
325 1 0.251011 0.108838 0.500000 
326 1 0.260666 0.126085 0.500000 
327 1 0.271022 0.109587 0.500000 
328 1 0.280676 0.126848 0.500000 
329 1 0.291025 0.110338 0.500000 
330 1 0.300675 0.127620 0.500000 
331 1 0.311017 0.111092 0.500000 
332 1 0.320667 0.128391 0.500000 
333 1 0.331002 0.111849 0.500000 
334 1 0.340649 0.129163 0.500000 
335 1 0.350978 0.112605 0.500000 
336 1 0.360619 0.129933 0.500000 
337 1 0.370946 0.113362 0.500000 
338 1 0.380585 0.130702 0.500000 
339 1 0.390907 0.114112 0.500000 
340 1 0.400540 0.131467 0.500000 
341 1 0.410855 0.114855 0.500000 
342 1 0.420483 0.132222 0.500000 
343 1 0.430793 0.115590 0.500000 
344 1 0.440419 0.132958 0.500000 
345 1 0.450728 0.116306 0.500000 
346 1 0.460350 0.133680 0.500000 
347 1 0.470653 0.117001 0.500000 
348 1 0.480272 0.134380 0.500000 
349 1 0.490572 0.117685 0.500000 
350 1 0.500192 0.135059 0.500000 
351 1 0.510488 0.118343 0.500000 
352 1 0.520105 0.135708 0.500000 
353 1 0.530401 0.118967 0.500000 
354 1 0.540014 0.136332 0.500000 
355 1 0.550308 0.119571 0.500000 
356 1 0.559925 0.136921 0.500000 
357 1 0.570219 0.120149 0.500000 
358 1 0.579838 0.137489 0.500000 
359 1 0.590126 0.120697 0.500000 
360 1 0.599752 0.138018 0.500000 
361 1 0.610033 0.121211 0.500000 
362 1 0.619664 0.138516 0.500000 
363 1 0.629942 0.121694 0.500000 
364 1 0.639578 0.138987 0.500000 
365 1 0.649853 0.122154 0.500000 
366 1 0.659496 0.139429 0.500000 
367 1 0.669769 0.122585 0.500000 
368 1 0.679414 0.139849 0.500000 
369 1 0.689683 0.122989 0.500000 
370 1 0.699338 0.140235 0.500000 
371 1 0.709603 0.123366 0.500000 
372 1 0.719269 0.140592 0.500000 
373 1 0.729527 0.123716 0.500000 
374 1 0.739198 0.140924 0.500000 
375 1 0.749456 0.124040 0.500000 
376 1 0.759133 0.141235 0.500000 
377 1 0.769389 0.124350 0.500000 
378 1 0.779077 0.141528 0.500000 
379 1 0.789328 0.124633 0.500000 
380 1 0.799023 0.141798 0.500000 
381 1 0.809270 0.124896 0.500000 
382 1 0.818973 0.142049 0.500000 
383 1 0.829215 0.125142 0.500000 
384 1 0.838925 0.142286 0.500000 
385 1 0.849161 0.125371 0.500000 
386 1 0.858879 0.142505 0.500000 
387 1 0.869113 0.125592 0.500000 
388 1 0.878838 0.142716 0.500000 
389 1 0.889068 0.125796 0.500000 
390 1 0.898802 0.142906 0.500000 
391 1 0.909025 0.125982 0.500000 
392 1 0.918766 0.143093 0.500000 
393 1 0.928983 0.126171 0.500000 
394 1 0.938733 0.143276 0.500000 
395 1 0.948940 0.126349 0.500000 
396 1 0.958701 0.143428 0.500000 
397 1 0.968919 0.126487 0.500000 
398 1 0.978689 0.143555 0.500000 
399 1 0.988905 0.126616 0.500000 
400 1 0.998682 0.143674 0.500000 
401 1 0.009754 0.134110 0.500000 
402 1 0.019367 0.151171 0.500000 
403 1 0.029790 0.134729 0.500000 
404 1 0.039403 0.151799 0.500000 
405 1 0.049825 0.135360 0.500000 
406 1 0.059442 0.152437 0.500000 
407 1 0.069865 0.136003 0.500000 
408 1 0.079501 0.153112 0.500000 
409 1 0.089930 0.136698 0.500000 
410 1 0.099564 0.153817 0.500000 
411 1 0.109991 0.137395 0.500000 
412 1 0.119624 0.154528 0.500000 
413 1 0.130048 0.138102 0.500000 
414 1 0.139683 0.155251 0.500000 
415 1 0.150103 0.138823 0.500000 
416 1 0.159741 0.155984 0.500000 
417 1 0.170156 0.139550 0.500000 
418 1 0.179793 0.156732 0.500000 
419 1 0.190201 0.140289 0.500000 
420 1 0.199840 0.157486 0.500000 
421 1 0.210241 0.141039 0.500000 
422 1 0.219879 0.158256 0.500000 
423 1 0.230274 0.141801 0.500000 
424 1 0.239911 0.159036 0.500000 
425 1 0.250300 0.142574 0.500000 
426 1 0.259940 0.159827 0.500000 
427 1 0.270314 0.143346 0.500000 
428 1 0.279959 0.160625 0.500000 
429 1 0.290321 0.144128 0.500000 
430 1 0.299968 0.161418 0.500000 
431 1 0.310325 0.144915 0.500000 
432 1 0.319969 0.162226 0.500000 
433 1 0.330315 0.145705 0.500000 
434 1 0.339955 0.163038 0.500000 
435 1 0.350290 0.146494 0.500000 
436 1 0.359930 0.163839 0.500000 
437 1 0.370260 0.147278 0.500000 
438 1 0.379895 0.164644 0.500000 
439 1 0.390222 0.148064 0.500000 
440 1 0.399852 0.165439 0.500000 
441 1 0.410173 0.148839 0.500000 
442 1 0.419800 0.166224 0.500000 
443 1 0.430114 0.149599 0.500000 
444 1 0.439739 0.166992 0.500000 
445 1 0.450046 0.150343 0.500000 
446 1 0.459669 0.167745 0.500000 
447 1 0.469969 0.151069 0.500000 
448 1 0.479593 0.168469 0.500000 
449 1 0.489889 0.151766 0.500000 
450 1 0.499507 0.169165 0.500000 
451 1 0.509803 0.152440 0.500000 
452 1 0.519418 0.169828 0.500000 
453 1 0.529716 0.153082 0.500000 
454 1 0.539335 0.170461 0.500000 
455 1 0.549633 0.153696 0.500000 
456 1 0.559252 0.171064 0.500000 
457 1 0.569544 0.154276 0.500000 
458 1 0.579171 0.171625 0.500000 
459 1 0.589461 0.154822 0.500000 
460 1 0.599090 0.172155 0.500000 
461 1 0.609379 0.155337 0.500000 
462 1 0.619012 0.172655 0.500000 
463 1 0.629297 0.155822 0.500000 
464 1 0.638938 0.173122 0.500000 
465 1 0.649218 0.156275 0.500000 
466 1 0.658864 0.173560 0.500000 
467 1 0.669138 0.156704 0.500000 
468 1 0.678792 0.173970 0.500000 
469 1 0.689066 0.157102 0.500000 
470 1 0.698731 0.174341 0.500000 
471 1 0.709004 0.157467 0.500000 
472 1 0.718671 0.174695 0.500000 
473 1 0.728939 0.157810 0.500000 
474 1 0.738614 0.175021 0.500000 
475 1 0.748877 0.158126 0.500000 
476 1 0.758561 0.175323 0.500000 
477 1 0.768820 0.158422 0.500000 
478 1 0.778512 0.175603 0.500000 
479 1 0.788769 0.158700 0.500000 
480 1 0.798469 0.175864 0.500000 
481 1 0.808721 0.158955 0.500000 
482 1 0.818430 0.176108 0.500000 
483 1 0.828678 0.159197 0.500000 
484 1 0.838396 0.176336 0.500000 
485 1 0.848640 0.159421 0.500000 
486 1 0.858364 0.176550 0.500000 
487 1 0.868603 0.159633 0.500000 
488 1 0.878334 0.176755 0.500000 
489 1 0.888570 0.159831 0.500000 
490 1 0.898308 0.176942 0.500000 
491 1 0.908538 0.160017 0.500000 
492 1 0.918284 0.177123 0.500000 
493 1 0.928508 0.160200 0.500000 
494 1 0.938265 0.177297 0.500000 
495 1 0.948477 0.160370 0.500000 
496 1 0.958249 0.177440 0.500000 
497 1 0.968470 0.160496 0.500000 
498 1 0.978251 0.177553 0.500000 
499 1 0.988467 0.160611 0.500000 
500 1 0.998258 0.177659 0.500000 
501 1 0.008938 0.167610 0.500000 
502 1 0.018532 0.184668 0.500000 
503 1 0.028972 0.168234 0.500000 
504 1 0.038566 0.185299 0.500000 
505 1 0.049008 0.168868 0.500000 
506 1 0.058602 0.185942 0.500000 
507 1 0.069047 0.169517 0.500000 
508 1 0.078661 0.186625 0.500000 
509 1 0.089117 0.170225 0.500000 
510 1 0.098726 0.187346 0.500000 
511 1 0.109183 0.170944 0.500000 
512 1 0.118792 0.188077 0.500000 
513 1 0.129243 0.171669 0.500000 
514 1 0.138855 0.188816 0.500000 
515 1 0.149305 0.172406 0.500000 
516 1 0.158918 0.189569 0.500000 
517 1 0.169363 0.173156 0.500000 
518 1 0.178980 0.190335 0.500000 
519 1 0.189420 0.173919 0.500000 
520 1 0.199038 0.191118 0.500000 
521 1 0.209468 0.174694 0.500000 
522 1 0.219088 0.191918 0.500000 
523 1 0.229506 0.175486 0.500000 
524 1 0.239136 0.192723 0.500000 
525 1 0.249542 0.176282 0.500000 
526 1 0.259170 0.193545 0.500000 
527 1 0.269573 0.177095 0.500000 
528 1 0.279205 0.194370 0.500000 
529 1 0.289598 0.177909 0.500000 
530 1 0.299228 0.195210 0.500000 
531 1 0.309605 0.178726 0.500000 
532 1 0.319232 0.196055 0.500000 
533 1 0.329600 0.179557 0.500000 
534 1 0.339231 0.196899 0.500000 
535 1 0.349589 0.180382 0.500000 
536 1 0.359215 0.197749 0.500000 
537 1 0.369560 0.181207 0.500000 
538 1 0.379185 0.198595 0.500000 
539 1 0.389522 0.182026 0.500000 
540 1 0.399142 0.199429 0.500000 
541 1 0.409474 0.182832 0.500000 
542 1 0.419090 0.200245 0.500000 
543 1 0.429419 0.183628 0.500000 
544 1 0.439032 0.201050 0.500000 
545 1 0.449354 0.184404 0.500000 
546 1 0.458963 0.201833 0.500000 
547 1 0.469282 0.185157 0.500000 
548 1 0.478885 0.202582 0.500000 
549 1 0.489203 0.185881 0.500000 
550 1 0.498804 0.203303 0.500000 
551 1 0.509117 0.186572 0.500000 
552 1 0.518723 0.203982 0.500000 
553 1 0.529032 0.187223 0.500000 
554 1 0.538642 0.204621 0.500000 
555 1 0.548949 0.187845 0.500000 
556 1 0.558564 0.205223 0.500000 
557 1 0.568870 0.188426 0.500000 
558 1 0.578489 0.205789 0.500000 
559 1 0.588791 0.188973 0.500000 
560 1 0.598417 0.206315 0.500000 
561 1 0.608716 0.189484 0.500000 
562 1 0.618345 0.206812 0.500000 
563 1 0.628645 0.189966 0.500000 
564 1 0.638279 0.207274 0.500000 
565 1 0.648578 0.190416 0.500000 
566 1 0.658218 0.207701 0.500000 
567 1 0.668514 0.190838 0.500000 
568 1 0.678166 0.208101 0.500000 
569 1 0.688456 0.191222 0.500000 
570 1 0.698115 0.208471 0.500000 
571 1 0.708396 0.191584 0.500000 
572 1 0.718065 0.208815 0.500000 
573 1 0.728341 0.191917 0.500000 
574 1 0.738024 0.209128 0.500000 
575 1 0.748295 0.192227 0.500000 
576 1 0.757989 0.209421 0.500000 
577 1 0.768256 0.192510 0.500000 
578 1 0.777952 0.209689 0.500000 
579 1 0.788218 0.192774 0.500000 
580 1 0.797918 0.209941 0.500000 
581 1 0.808181 0.193023 0.500000 
582 1 0.817893 0.210175 0.500000 
583 1 0.828150 0.193255 0.500000 
584 1 0.837873 0.210396 0.500000 
585 1 0.848121 0.193471 0.500000 
586 1 0.857855 0.210599 0.500000 
587 1 0.868096 0.193676 0.500000 
588 1 0.877839 0.210792 0.500000 
589 1 0.888077 0.193867 0.500000 
590 1 0.897825 0.210973 0.500000 
591 1 0.908055 0.194047 0.500000 
592 1 0.917813 0.211144 0.500000 
593 1 0.928037 0.194219 0.500000 
594 1 0.937806 0.211308 0.500000 
595 1 0.948021 0.194385 0.500000 
596 1 0.957807 0.211443 0.500000 
597 1 0.968031 0.194496 0.500000 
598 1 0.977825 0.211543 0.500000 
599 1 0.988043 0.194599 0.500000 
600 1 0.997847 0.211634 0.500000 
601 1 0.008083 0.201103 0.500000 
602 1 0.017654 0.218157 0.500000 
603 1 0.028113 0.201727 0.500000 
604 1 0.037684 0.218790 0.500000 
605 1 0.048147 0.202367 0.500000 
606 1 0.057718 0.219436 0.500000 
607 1 0.068185 0.203017 0.500000 
608 1 0.077779 0.220128 0.500000 
609 1 0.088256 0.203740 0.500000 
610 1 0.097842 0.220860 0.500000 
611 1 0.108322 0.204473 0.500000 
612 1 0.117906 0.221603 0.500000 
613 1 0.128389 0.205216 0.500000 
614 1 0.137974 0.222360 0.500000 
615 1 0.148454 0.205970 0.500000 
616 1 0.158044 0.223131 0.500000 
617 1 0.168520 0.206740 0.500000 
618 1 0.178113 0.223920 0.500000 
619 1 0.188583 0.207527 0.500000 
620 1 0.198182 0.224727 0.500000 
621 1 0.208642 0.208331 0.500000 
622 1 0.218247 0.225546 0.500000 
623 1 0.228700 0.209143 0.500000 
624 1 0.238303 0.226387 0.500000 
625 1 0.248748 0.209980 0.500000 
626 1 0.258358 0.227240 0.500000 
627 1 0.268789 0.210813 0.500000 
628 1 0.278398 0.228103 0.500000 
629 1 0.288821 0.211667 0.500000 
630 1 0.298429 0.228984 0.500000 
631 1 0.308842 0.212532 0.500000 
632 1 0.318456 0.229865 0.500000 
633 1 0.328853 0.213393 0.500000 
634 1 0.338462 0.230761 0.500000 
635 1 0.348845 0.214267 0.500000 
636 1 0.358455 0.231656 0.500000 
637 1 0.368825 0.215136 0.500000 
638 1 0.378432 0.232548 0.500000 
639 1 0.388795 0.216003 0.500000 
640 1 0.398398 0.233430 0.500000 
641 1 0.408750 0.216850 0.500000 
642 1 0.418352 0.234290 0.500000 
643 1 0.428695 0.217676 0.500000 
644 1 0.438288 0.235133 0.500000 
645 1 0.448630 0.218491 0.500000 
646 1 0.458221 0.235948 0.500000 
647 1 0.468559 0.219274 0.500000 
648 1 0.478150 0.236727 0.500000 
649 1 0.488483 0.220019 0.500000 
650 1 0.498072 0.237468 0.500000 
651 1 0.508404 0.220729 0.500000 
652 1 0.517995 0.238160 0.500000 
653 1 0.528325 0.221394 0.500000 
654 1 0.537920 0.238809 0.500000 
655 1 0.548247 0.222018 0.500000 
656 1 0.557852 0.239414 0.500000 
657 1 0.568173 0.222600 0.500000 
658 1 0.577785 0.239973 0.500000 
659 1 0.588105 0.223145 0.500000 
660 1 0.597719 0.240504 0.500000 
661 1 0.608038 0.223659 0.500000 
662 1 0.617659 0.240992 0.500000 
663 1 0.627975 0.224131 0.500000 
664 1 0.637605 0.241442 0.500000 
665 1 0.647919 0.224570 0.500000 
666 1 0.657558 0.241860 0.500000 
667 1 0.667868 0.224979 0.500000 
668 1 0.677518 0.242246 0.500000 
669 1 0.687824 0.225359 0.500000 
670 1 0.697483 0.242610 0.500000 
671 1 0.707782 0.225713 0.500000 
672 1 0.717456 0.242937 0.500000 
673 1 0.727746 0.226033 0.500000 
674 1 0.737434 0.243243 0.500000 
675 1 0.747714 0.226330 0.500000 
676 1 0.757412 0.243523 0.500000 
677 1 0.767687 0.226607 0.500000 
678 1 0.777395 0.243782 0.500000 
679 1 0.787661 0.226861 0.500000 
680 1 0.797379 0.244022 0.500000 
681 1 0.807638 0.227096 0.500000 
682 1 0.817367 0.244244 0.500000 
683 1 0.827623 0.227319 0.500000 
684 1 0.837360 0.244452 0.500000 
685 1 0.847612 0.227525 0.500000 
686 1 0.857355 0.244649 0.500000 
687 1 0.867599 0.227720 0.500000 
688 1 0.877353 0.244830 0.500000 
689 1 0.887590 0.227901 0.500000 
690 1 0.897354 0.245002 0.500000 
691 1 0.907585 0.228073 0.500000 
692 1 0.917360 0.245160 0.500000 
693 1 0.927582 0.228232 0.500000 
694 1 0.937367 0.245316 0.500000 
695 1 0.947580 0.228392 0.500000 
696 1 0.957383 0.245436 0.500000 
697 1 0.967605 0.228489 0.500000 
698 1 0.977417 0.245522 0.500000 
699 1 0.987634 0.228577 0.500000 
700 1 0.997455 0.245600 0.500000 
701 1 0.007189 0.234587 0.500000 
702 1 0.016737 0.251640 0.500000 
703 1 0.027214 0.235215 0.500000 
704 1 0.036760 0.252274 0.500000 
705 1 0.047243 0.235854 0.500000 
706 1 0.056787 0.252921 0.500000 
707 1 0.067275 0.236508 0.500000 
708 1 0.076837 0.253615 0.500000 
709 1 0.087344 0.237240 0.500000 
710 1 0.096900 0.254355 0.500000 
711 1 0.107409 0.237982 0.500000 
712 1 0.116966 0.255112 0.500000 
713 1 0.127476 0.238739 0.500000 
714 1 0.137038 0.255880 0.500000 
715 1 0.147548 0.239509 0.500000 
716 1 0.157112 0.256668 0.500000 
717 1 0.167620 0.240300 0.500000 
718 1 0.177190 0.257474 0.500000 
719 1 0.187694 0.241107 0.500000 
720 1 0.197267 0.258301 0.500000 
721 1 0.207768 0.241931 0.500000 
722 1 0.217339 0.259151 0.500000 
723 1 0.227833 0.242778 0.500000 
724 1 0.237407 0.260018 0.500000 
725 1 0.247894 0.243638 0.500000 
726 1 0.257470 0.260907 0.500000 
727 1 0.267948 0.244518 0.500000 
728 1 0.277529 0.261814 0.500000 
729 1 0.287992 0.245412 0.500000 
730 1 0.297583 0.262730 0.500000 
731 1 0.308030 0.246311 0.500000 
732 1 0.317619 0.263669 0.500000 
733 1 0.328051 0.247227 0.500000 
734 1 0.337641 0.264610 0.500000 
735 1 0.348059 0.248148 0.500000 
736 1 0.357648 0.265561 0.500000 
737 1 0.368051 0.249071 0.500000 
738 1 0.377639 0.266509 0.500000 
739 1 0.388028 0.249984 0.500000 
740 1 0.397614 0.267439 0.500000 
741 1 0.407992 0.250879 0.500000 
742 1 0.417570 0.268360 0.500000 
743 1 0.427938 0.251761 0.500000 
744 1 0.437514 0.269253 0.500000 
745 1 0.447874 0.252609 0.500000 
746 1 0.457446 0.270103 0.500000 
747 1 0.467807 0.253422 0.500000 
748 1 0.477373 0.270918 0.500000 
749 1 0.487732 0.254199 0.500000 
750 1 0.497302 0.271675 0.500000 
751 1 0.507657 0.254922 0.500000 
752 1 0.517227 0.272380 0.500000 
753 1 0.527581 0.255595 0.500000 
754 1 0.537155 0.273032 0.500000 
755 1 0.547509 0.256224 0.500000 
756 1 0.557094 0.273632 0.500000 
757 1 0.567448 0.256804 0.500000 
758 1 0.577041 0.274193 0.500000 
759 1 0.587389 0.257347 0.500000 
760 1 0.596993 0.274710 0.500000 
761 1 0.607337 0.257853 0.500000 
762 1 0.616956 0.275190 0.500000 
763 1 0.627287 0.258316 0.500000 
764 1 0.636922 0.275632 0.500000 
765 1 0.647244 0.258747 0.500000 
766 1 0.656894 0.276035 0.500000 
767 1 0.667210 0.259138 0.500000 
768 1 0.676873 0.276408 0.500000 
769 1 0.687180 0.259506 0.500000 
770 1 0.696858 0.276751 0.500000 
771 1 0.707160 0.259843 0.500000 
772 1 0.716848 0.277066 0.500000 
773 1 0.727143 0.260152 0.500000 
774 1 0.736842 0.277354 0.500000 
775 1 0.747132 0.260439 0.500000 
776 1 0.756840 0.277627 0.500000 
777 1 0.767120 0.260704 0.500000 
778 1 0.776845 0.277876 0.500000 
779 1 0.787112 0.260950 0.500000 
780 1 0.796849 0.278107 0.500000 
781 1 0.807108 0.261175 0.500000 
782 1 0.816854 0.278316 0.500000 
783 1 0.827107 0.261383 0.500000 
784 1 0.836862 0.278510 0.500000 
785 1 0.847106 0.261577 0.500000 
786 1 0.856873 0.278691 0.500000 
787 1 0.867111 0.261761 0.500000 
788 1 0.876892 0.278859 0.500000 
789 1 0.887120 0.261929 0.500000 
790 1 0.896911 0.279014 0.500000 
791 1 0.907133 0.262086 0.500000 
792 1 0.916928 0.279163 0.500000 
793 1 0.927147 0.262239 0.500000 
794 1 0.936952 0.279308 0.500000 
795 1 0.947159 0.262387 0.500000 
796 1 0.956982 0.279417 0.500000 
797 1 0.967200 0.262468 0.500000 
798 1 0.977036 0.279488 0.500000 
799 1 0.987245 0.262544 0.500000 
800 1 0.997089 0.279555 0.500000 
801 1 0.006256 0.268068 0.500000 
802 1 0.015779 0.285121 0.500000 
803 1 0.026272 0.268696 0.500000 
804 1 0.035792 0.285753 0.500000 
805 1 0.046292 0.269335 0.500000 
806 1 0.055810 0.286400 0.500000 
807 1 0.066319 0.269991 0.500000 
808 1 0.075856 0.287096 0.500000 
809 1 0.086378 0.270724 0.500000 
810 1 0.095912 0.287836 0.500000 
811 1 0.106442 0.271475 0.500000 
812 1 0.115974 0.288596 0.500000 
813 1 0.126512 0.272241 0.500000 
814 1 0.136042 0.289374 0.500000 
815 1 0.146586 0.273027 0.500000 
816 1 0.156117 0.290175 0.500000 
817 1 0.166662 0.273829 0.500000 
818 1 0.176192 0.290995 0.500000 
819 1 0.186739 0.274655 0.500000 
820 1 0.196273 0.291841 0.500000 
821 1 0.206816 0.275503 0.500000 
822 1 0.216353 0.292711 0.500000 
823 1 0.226894 0.276377 0.500000 
824 1 0.236434 0.293614 0.500000 
825 1 0.246967 0.277272 0.500000 
826 1 0.256516 0.294538 0.500000 
827 1 0.267036 0.278188 0.500000 
828 1 0.276593 0.295481 0.500000 
829 1 0.287103 0.279119 0.500000 
830 1 0.296658 0.296455 0.500000 
831 1 0.307153 0.280078 0.500000 
832 1 0.316715 0.297441 0.500000 
833 1 0.327194 0.281043 0.500000 
834 1 0.336754 0.298441 0.500000 
835 1 0.347218 0.282017 0.500000 
836 1 0.356775 0.299452 0.500000 
837 1 0.367224 0.282999 0.500000 
838 1 0.376781 0.300462 0.500000 
839 1 0.387213 0.283969 0.500000 
840 1 0.396766 0.301468 0.500000 
841 1 0.407179 0.284929 0.500000 
842 1 0.416730 0.302451 0.500000 
843 1 0.427133 0.285867 0.500000 
844 1 0.436673 0.303408 0.500000 
845 1 0.447073 0.286771 0.500000 
846 1 0.456609 0.304314 0.500000 
847 1 0.467002 0.287625 0.500000 
848 1 0.476541 0.305153 0.500000 
849 1 0.486931 0.288418 0.500000 
850 1 0.496468 0.305927 0.500000 
851 1 0.506859 0.289157 0.500000 
852 1 0.516406 0.306640 0.500000 
853 1 0.526796 0.289839 0.500000 
854 1 0.536353 0.307291 0.500000 
855 1 0.546739 0.290462 0.500000 
856 1 0.556308 0.307886 0.500000 
857 1 0.566686 0.291037 0.500000 
858 1 0.576270 0.308436 0.500000 
859 1 0.586641 0.291574 0.500000 
860 1 0.596245 0.308936 0.500000 
861 1 0.606606 0.292061 0.500000 
862 1 0.616228 0.309397 0.500000 
863 1 0.626583 0.292514 0.500000 
864 1 0.636221 0.309823 0.500000 
865 1 0.646566 0.292931 0.500000 
866 1 0.656220 0.310213 0.500000 
867 1 0.666554 0.293309 0.500000 
868 1 0.676224 0.310571 0.500000 
869 1 0.686548 0.293662 0.500000 
870 1 0.696233 0.310904 0.500000 
871 1 0.706547 0.293983 0.500000 
872 1 0.716248 0.311202 0.500000 
873 1 0.726549 0.294276 0.500000 
874 1 0.736264 0.311478 0.500000 
875 1 0.746552 0.294551 0.500000 
876 1 0.756282 0.311733 0.500000 
877 1 0.766563 0.294801 0.500000 
878 1 0.776305 0.311967 0.500000 
879 1 0.786577 0.295038 0.500000 
880 1 0.796333 0.312182 0.500000 
881 1 0.806595 0.295250 0.500000 