          23           7
   1.7985180759619067E-306   0.0000000000000000        0.0000000000000000        1.7985180759619067E-306   0.0000000000000000        0.0000000000000000        0.0000000000000000     
   2.0000000000000000        0.0000000000000000        0.0000000000000000        0.0000000000000000        0.0000000000000000        0.0000000000000000        0.0000000000000000     
   4.0000000000000000        0.0000000000000000        0.0000000000000000        2.1219957924474693E-314   0.0000000000000000        0.0000000000000000        0.0000000000000000     
   2.1219957929415349E-314   2.0000000000000000        0.0000000000000000        2.1219957929415349E-314   1.0609978954826362E-313   0.0000000000000000        0.0000000000000000     
   2.0000000000000000        2.0000000000000000        0.0000000000000000        6.3659873768483421E-314   9.8813129168249309E-324   0.0000000000000000        0.0000000000000000     
   4.0000000000000000        2.0000000000000000        0.0000000000000000        1.6975966330192507E-313   8.4879831658373518E-314   0.0000000000000000        0.0000000000000000     
   1.2731974746285700E-313   4.0000000000000000        0.0000000000000000        1.2731974746285700E-313   8.4879831683076801E-314   0.0000000000000000        0.0000000000000000     
   2.0000000000000000        4.0000000000000000        0.0000000000000000        9.8813129168249309E-324   1.6975966331180638E-313   0.0000000000000000        0.0000000000000000     
   4.0000000000000000        4.0000000000000000        0.0000000000000000        6.3659873743780139E-314   1.4853970537250972E-313   0.0000000000000000        0.0000000000000000     
   1.0609978958778887E-313   6.0000000000000000        0.0000000000000000        1.0609978958778887E-313   4.9406564584124654E-324   0.0000000000000000        0.0000000000000000     
   2.0000000000000000        6.0000000000000000        0.0000000000000000        2.1219957913111183E-313   8.4879831663314175E-314   0.0000000000000000        0.0000000000000000     
   4.0000000000000000        6.0000000000000000        0.0000000000000000        1.6975966328216244E-313   8.4879831683076801E-314   0.0000000000000000        0.0000000000000000     
   2.1219957924474693E-314   8.0000000000000000        0.0000000000000000        2.1219957924474693E-314   0.0000000000000000        0.0000000000000000        0.0000000000000000     
   2.0000000000000000        8.0000000000000000        0.0000000000000000        2.1219957939296662E-314   0.0000000000000000        0.0000000000000000        0.0000000000000000     
   4.0000000000000000        8.0000000000000000        0.0000000000000000        1.0609978960261084E-313   0.0000000000000000        0.0000000000000000        0.0000000000000000     
   1.0000000000000000        1.0000000000000000        0.0000000000000000        4.4962956673538196E-307   5.8354884266366958E-314   0.0000000000000000        0.0000000000000000     
   3.0000000000000000        1.0000000000000000        0.0000000000000000        9.0184821135786699E-314   6.3659873748720795E-314   0.0000000000000000        0.0000000000000000     
   1.0000000000000000        3.0000000000000000        0.0000000000000000        5.3049894793894434E-314   9.0184821135786699E-314   0.0000000000000000        0.0000000000000000     
   3.0000000000000000        3.0000000000000000        0.0000000000000000        7.4269852703547157E-314   1.0079480009061306E-313   0.0000000000000000        0.0000000000000000     
   1.0000000000000000        5.0000000000000000        0.0000000000000000        1.1140477904543942E-313   8.4879831668254831E-314   0.0000000000000000        0.0000000000000000     
   3.0000000000000000        5.0000000000000000        0.0000000000000000        1.1140477904049877E-313   1.2201475801014710E-313   0.0000000000000000        0.0000000000000000     
   1.0000000000000000        7.0000000000000000        0.0000000000000000        9.0184821145668012E-314   1.1140477904543942E-313   0.0000000000000000        0.0000000000000000     
   3.0000000000000000        7.0000000000000000        0.0000000000000000        1.2731974748756028E-313   8.4879831658373518E-314   0.0000000000000000        0.0000000000000000     
 
          23           3
           1           0           2
           1           0           3
           1           0           2
           1           0           0
           1           0           0
           1           0           0
           1           0           0
           1           0           0
           1           0           0
           1           0           0
           1           0           0
           1           0           0
           1           0           2
           1           0           2
           1           0           2
           1          -1           3
           1          -1           3
           1          -1           3
           1          -1           3
           1          -1           3
           1          -1           3
           1          -1           3
           1          -1           3
 
