          23           7
   1.5067850749553668E-306   0.0000000000000000        0.0000000000000000        1.5067850749553668E-306   0.0000000000000000        0.0000000000000000        0.0000000000000000     
   2.0000000000000000        0.0000000000000000        0.0000000000000000        0.0000000000000000        0.0000000000000000        0.0000000000000000        0.0000000000000000     
   4.0000000000000000        0.0000000000000000        0.0000000000000000        3.8473634091760995E-307   0.0000000000000000        0.0000000000000000        0.0000000000000000     
   3.8473646823735741E-307   2.0000000000000000        0.0000000000000000        3.8473646823735741E-307   6.3693970696196581E-314   0.0000000000000000        0.0000000000000000     
   2.0000000000000000        2.0000000000000000        0.0000000000000000        3.8473646823735733E-307   1.6979376028398545E-313   0.0000000000000000        0.0000000000000000     
   4.0000000000000000        2.0000000000000000        0.0000000000000000        3.8473619237790450E-307   3.8347026280221709E-270   0.0000000000000000        0.0000000000000000     
   3.8473621359786241E-307   4.0000000000000000        0.0000000000000000        3.8473621359786241E-307   2.1254054847247196E-314   0.0000000000000000        0.0000000000000000     
   2.0000000000000000        4.0000000000000000        0.0000000000000000        3.8473619237790450E-307   2.1254054862069165E-314   0.0000000000000000        0.0000000000000000     
   4.0000000000000000        4.0000000000000000        0.0000000000000000        3.8473619237790450E-307   6.3693970671493298E-314   0.0000000000000000        0.0000000000000000     
   3.8473619237790450E-307   6.0000000000000000        0.0000000000000000        3.8473619237790450E-307   6.3693970661611986E-314   0.0000000000000000        0.0000000000000000     
   2.0000000000000000        6.0000000000000000        0.0000000000000000        3.8473621359786241E-307   3.4096942535129031E-317   0.0000000000000000        0.0000000000000000     
   4.0000000000000000        6.0000000000000000        0.0000000000000000        3.8473631969765196E-307   8.4913928586086678E-314   0.0000000000000000        0.0000000000000000     
   3.8473629847769405E-307   8.0000000000000000        0.0000000000000000        3.8473629847769405E-307   0.0000000000000000        0.0000000000000000        0.0000000000000000     
   2.0000000000000000        8.0000000000000000        0.0000000000000000        3.8473617115794659E-307   0.0000000000000000        0.0000000000000000        0.0000000000000000     
   4.0000000000000000        8.0000000000000000        0.0000000000000000        3.8473625603777823E-307   0.0000000000000000        0.0000000000000000        0.0000000000000000     
   1.0000000000000000        1.0000000000000000        0.0000000000000000        0.0000000000000000        0.0000000000000000        0.0000000000000000        0.0000000000000000     
   3.0000000000000000        1.0000000000000000        0.0000000000000000        0.0000000000000000        0.0000000000000000        0.0000000000000000        0.0000000000000000     
   1.0000000000000000        3.0000000000000000        0.0000000000000000        0.0000000000000000        0.0000000000000000        0.0000000000000000        0.0000000000000000     
   3.0000000000000000        3.0000000000000000        0.0000000000000000        0.0000000000000000        0.0000000000000000        0.0000000000000000        0.0000000000000000     
   1.0000000000000000        5.0000000000000000        0.0000000000000000        0.0000000000000000        0.0000000000000000        0.0000000000000000        0.0000000000000000     
   3.0000000000000000        5.0000000000000000        0.0000000000000000        0.0000000000000000        0.0000000000000000        0.0000000000000000        0.0000000000000000     
   1.0000000000000000        7.0000000000000000        0.0000000000000000        0.0000000000000000        0.0000000000000000        0.0000000000000000        0.0000000000000000     
   3.0000000000000000        7.0000000000000000        0.0000000000000000        0.0000000000000000        0.0000000000000000        0.0000000000000000        0.0000000000000000     
 
          23           3
           1           0           2
           1           0           3
           1           0           2
           1           0           0
           1           0           0
           1           0           0
           1           0           0
           1           0           0
           1           0           0
           1           0           0
           1           0           0
           1           0           0
           1           0           2
           1           0           2
           1           0           2
           1          -1           3
           1          -1           3
           1          -1           3
           1          -1           3
           1          -1           3
           1          -1           3
           1          -1           3
           1          -1           3
 
