          36           7
   1.4049038124841548E-307  -4.0000000000000000        0.0000000000000000        1.4049038124841548E-307   1.2731974746285700E-313   0.0000000000000000        0.0000000000000000     
   1.0000000000000000       -4.0000000000000000        0.0000000000000000        1.0609978958284821E-313   4.9406564584124654E-324   0.0000000000000000        0.0000000000000000     
   2.0000000000000000       -4.0000000000000000        0.0000000000000000        2.1219957912617117E-313   4.2439915839068072E-314   0.0000000000000000        0.0000000000000000     
   3.0000000000000000       -4.0000000000000000        0.0000000000000000        1.2731974745791634E-313   1.0609978959767018E-313   0.0000000000000000        0.0000000000000000     
   2.1219957929415349E-314  -3.0000000000000000        0.0000000000000000        2.1219957929415349E-314   1.6975966331180638E-313   0.0000000000000000        0.0000000000000000     
   1.0000000000000000       -3.0000000000000000        0.0000000000000000        6.3659873743780139E-314   1.4853970537250972E-313   0.0000000000000000        0.0000000000000000     
   2.0000000000000000       -3.0000000000000000        0.0000000000000000        1.2731974749744159E-313   4.9406564584124654E-324   0.0000000000000000        0.0000000000000000     
   3.0000000000000000       -3.0000000000000000        0.0000000000000000        2.3341953704076455E-313   4.2439915844008729E-314   0.0000000000000000        0.0000000000000000     
   1.4853970536756906E-313  -2.0000000000000000        0.0000000000000000        1.4853970536756906E-313   1.2731974751226356E-313   0.0000000000000000        0.0000000000000000     
   1.0000000000000000       -2.0000000000000000        0.0000000000000000        2.1219957929415349E-314   2.5463949495535793E-313   0.0000000000000000        0.0000000000000000     
   2.0000000000000000       -2.0000000000000000        0.0000000000000000        4.2439915848949385E-314   1.9097962118687451E-313   0.0000000000000000        0.0000000000000000     
   3.0000000000000000       -2.0000000000000000        0.0000000000000000        8.4879831688017457E-314   2.1219957924474693E-314   0.0000000000000000        0.0000000000000000     
   2.1219957914099314E-313  -1.0000000000000000        0.0000000000000000        2.1219957914099314E-313   2.1219957944237318E-314   0.0000000000000000        0.0000000000000000     
   1.0000000000000000       -1.0000000000000000        0.0000000000000000        1.9097962118687451E-313   1.4853970543179760E-313   0.0000000000000000        0.0000000000000000     
   2.0000000000000000       -1.0000000000000000        0.0000000000000000        2.1219957929415349E-314   2.3341953705558652E-313   0.0000000000000000        0.0000000000000000     
   3.0000000000000000       -1.0000000000000000        0.0000000000000000        6.3659873753661452E-314   2.1219957910146789E-313   0.0000000000000000        0.0000000000000000     
   1.6975966333156901E-313   4.9406564584124654E-324   0.0000000000000000        1.6975966333156901E-313   4.9406564584124654E-324   0.0000000000000000        0.0000000000000000     
   1.0000000000000000        4.2439915853890042E-314   0.0000000000000000        2.9707941078454469E-313   4.2439915853890042E-314   0.0000000000000000        0.0000000000000000     
   2.0000000000000000        1.6975966334639098E-313   0.0000000000000000        2.1219957909652723E-313   1.6975966334639098E-313   0.0000000000000000        0.0000000000000000     
   3.0000000000000000        2.5463949497017990E-313   0.0000000000000000        2.1219957929415349E-314   2.5463949497017990E-313   0.0000000000000000        0.0000000000000000     
   6.3659873758602108E-314   1.0000000000000000        0.0000000000000000        6.3659873758602108E-314   2.3341953701112061E-313   0.0000000000000000        0.0000000000000000     
   1.0000000000000000        1.0000000000000000        0.0000000000000000        1.9097962124616239E-313   4.9406564584124654E-324   0.0000000000000000        0.0000000000000000     
   2.0000000000000000        1.0000000000000000        0.0000000000000000        3.1829936869913807E-313   4.2439915858830698E-314   0.0000000000000000        0.0000000000000000     
   3.0000000000000000        1.0000000000000000        0.0000000000000000        2.3341953700617995E-313   1.9097962126098436E-313   0.0000000000000000        0.0000000000000000     
   2.1219957929415349E-314   2.0000000000000000        0.0000000000000000        2.1219957929415349E-314   3.3951932661373145E-313   0.0000000000000000        0.0000000000000000     
   1.0000000000000000        2.0000000000000000        0.0000000000000000        4.2439915863771354E-314   2.7585945282548540E-313   0.0000000000000000        0.0000000000000000     
   2.0000000000000000        2.0000000000000000        0.0000000000000000        1.4853970543673825E-313   2.1219957924474693E-314   0.0000000000000000        0.0000000000000000     
   3.0000000000000000        2.0000000000000000        0.0000000000000000        2.9707941079936666E-313   2.1219957959059288E-314   0.0000000000000000        0.0000000000000000     
   2.7585945282548540E-313   3.0000000000000000        0.0000000000000000        2.7585945282548540E-313   2.1219957918051839E-313   0.0000000000000000        0.0000000000000000     
   1.0000000000000000        3.0000000000000000        0.0000000000000000        2.1219957929415349E-314   3.1829936871396004E-313   0.0000000000000000        0.0000000000000000     
   2.0000000000000000        3.0000000000000000        0.0000000000000000        6.3659873768483421E-314   2.9707941074007878E-313   0.0000000000000000        0.0000000000000000     
   3.0000000000000000        3.0000000000000000        0.0000000000000000        2.3341953708028980E-313   4.9406564584124654E-324   0.0000000000000000        0.0000000000000000     
   3.8195924244291821E-313   4.0000000000000000        0.0000000000000000        3.8195924244291821E-313   4.2439915868712011E-314   0.0000000000000000        0.0000000000000000     
   1.0000000000000000        4.0000000000000000        0.0000000000000000        2.9707941073513812E-313   2.3341953709511177E-313   0.0000000000000000        0.0000000000000000     
   2.0000000000000000        4.0000000000000000        0.0000000000000000        2.1219957929415349E-314   3.3951932662855342E-313   0.0000000000000000        0.0000000000000000     
   3.0000000000000000        4.0000000000000000        0.0000000000000000        6.3659873773424078E-314   3.1829936864973150E-313   0.0000000000000000        0.0000000000000000     
 
          36           3
           1           0           0
           1           0           0
           1           0           0
           1           0           0
           1           0           0
           1           0           0
           1           0           0
           1           0           0
           1           0           0
           1           0           0
           1           0           0
           1           0           0
           1           0           0
           1           0           0
           1           0           0
           1           0           0
           1           0           0
           1           0           0
           1           0           0
           1           0           0
           1           0           0
           1           0           0
           1           0           0
           1           0           0
           1           0           0
           1           0           0
           1           0           0
           1           0           0
           1           0           0
           1           0           0
           1           0           0
           1           0           0
           1           0           0
           1           0           0
           1           0           0
           1           0           0
 
