           1
   1.1224600000000000     
   1.0000000000000000     
           3           3
   31.826433589078121        10.608811196359374        0.0000000000000000     
   10.608811196359374        31.826433589078121        0.0000000000000000     
   0.0000000000000000        0.0000000000000000        10.608811196359374     
 
   6.0000000000000000     
 hex                 
   1.0000000000000000     
 material1           
  0.91648642465999997     
 
