           1
           3
          25
          25
          25
 
           3           2
   0.0000000000000000       -4.5000000000000000     
   3.5000000000000000       -4.5000000000000000     
  -5.5000000000000000       -4.5000000000000000     
 
           3
   1.0000000000000000     
   1.0000000000000000     
   1.0000000000000000     
 
           3
   0.0000000000000000     
   1.0471975511965976     
  -1.0471975511965976     
 
